srun: error: Invalid user id 1002: No error
srun: Warning: Unable to assume uid=1002

     Program PWSCF v.6.5 starts on 19Apr2021 at 20:32:32 

     This program is part of the open-source Quantum ESPRESSO suite
     for quantum simulation of materials; please cite
         "P. Giannozzi et al., J. Phys.:Condens. Matter 21 395502 (2009);
         "P. Giannozzi et al., J. Phys.:Condens. Matter 29 465901 (2017);
          URL http://www.quantum-espresso.org", 
     in publications or presentations arising from this work. More details at
     http://www.quantum-espresso.org/quote

     Parallel version (MPI), running on    32 processors

     MPI processes distributed on     1 nodes
     R & G space division:  proc/nbgrp/npool/nimage =      32
     Reading input from MD100kbar.in

     Current dimensions of program PWSCF are:
     Max number of different atomic species (ntypx) = 10
     Max number of k-points (npk) =  40000
     Max angular momentum in pseudopotentials (lmaxx) =  3
               file Al.pbe-n-kjpaw_psl.1.0.0.UPF: wavefunction(s)  3S 3P renormalized
               file Nb.pbe-spn-kjpaw_psl.0.3.0.UPF: wavefunction(s)  4S 4P renormalized

     Subspace diagonalization in iterative solution of the eigenvalue problem:
     a serial algorithm will be used

     Found symmetry operation: I + ( -0.0000 -0.5000  0.5000)
     This is a supercell, fractional translations are disabled

     Parallelization info
     --------------------
     sticks:   dense  smooth     PW     G-vecs:    dense   smooth      PW
     Min          64      28      8                 2173      637     104
     Max          65      29      9                 2178      642     109
     Sum        2053     901    277                69599    20479    3407



     bravais-lattice index     =            0
     lattice parameter (alat)  =       7.6373  a.u.
     unit-cell volume          =     445.4683 (a.u.)^3
     number of atoms/cell      =            4
     number of atomic types    =            6
     number of electrons       =        12.00
     number of Kohn-Sham states=           10
     kinetic-energy cutoff     =      48.9484  Ry
     charge density cutoff     =     440.5350  Ry
     convergence threshold     =      1.0E-06
     mixing beta               =       0.4000
     number of iterations used =            8  plain     mixing
     Exchange-correlation= SLA  PW   PBE  PBE
                           (   1   4   3   4   0   0   0)
     nstep                     =          100


     celldm(1)=   7.637283  celldm(2)=   0.000000  celldm(3)=   0.000000
     celldm(4)=   0.000000  celldm(5)=   0.000000  celldm(6)=   0.000000

     crystal axes: (cart. coord. in units of alat)
               a(1) = (   1.000000   0.000000   0.000000 )  
               a(2) = (   0.000000   1.000000   0.000000 )  
               a(3) = (   0.000000   0.000000   1.000001 )  

     reciprocal axes: (cart. coord. in units 2 pi/alat)
               b(1) = (  1.000000 -0.000000 -0.000000 )  
               b(2) = ( -0.000000  1.000000 -0.000000 )  
               b(3) = ( -0.000000 -0.000000  0.999999 )  


     PseudoPot. # 1 for Al read from file:
     /opt/QEpot/SSSP_precision_pseudos/Al.pbe-n-kjpaw_psl.1.0.0.UPF
     MD5 check sum: cfc449ca30b5f3223ec38ddd88ac046d
     Pseudo is Projector augmented-wave + core cor, Zval =  3.0
     Generated using "atomic" code by A. Dal Corso v.5.1
     Shape of augmentation charge: PSQ
     Using radial grid of 1135 points,  6 beta functions with: 
                l(1) =   0
                l(2) =   0
                l(3) =   1
                l(4) =   1
                l(5) =   2
                l(6) =   2
     Q(r) pseudized with 0 coefficients 


     PseudoPot. # 2 for Mo read from file:
     /opt/QEpot/SSSP_precision_pseudos/Mo_ONCV_PBE-1.0.oncvpsp.upf
     MD5 check sum: 1b5d28e075c9ccadda658a603575cd1f
     Pseudo is Norm-conserving, Zval = 14.0
     Generated using ONCVPSP code by D. R. Hamann
     Using radial grid of 1526 points,  6 beta functions with: 
                l(1) =   0
                l(2) =   0
                l(3) =   1
                l(4) =   1
                l(5) =   2
                l(6) =   2

     PseudoPot. # 3 for Nb read from file:
     /opt/QEpot/SSSP_precision_pseudos/Nb.pbe-spn-kjpaw_psl.0.3.0.UPF
     MD5 check sum: 411d72ad547312f8017e2943ceca08cc
     Pseudo is Projector augmented-wave + core cor, Zval = 13.0
     Generated using "atomic" code by A. Dal Corso v.5.0.99 svn rev. 10869
     Shape of augmentation charge: PSQ
     Using radial grid of 1227 points,  6 beta functions with: 
                l(1) =   0
                l(2) =   0
                l(3) =   1
                l(4) =   1
                l(5) =   2
                l(6) =   2
     Q(r) pseudized with 0 coefficients 


     PseudoPot. # 4 for Ta read from file:
     /opt/QEpot/SSSP_precision_pseudos/Ta_pbe_v1.uspp.F.UPF
     MD5 check sum: f8bbe9446314a3b8ea5d9f3e3836c939
     Pseudo is Ultrasoft + core correction, Zval = 13.0
     Generated by new atomic code, or converted to UPF format
     Using radial grid of  921 points,  7 beta functions with: 
                l(1) =   0
                l(2) =   0
                l(3) =   1
                l(4) =   1
                l(5) =   2
                l(6) =   2
                l(7) =   3
     Q(r) pseudized with  6 coefficients,  rinner =    1.300   1.300   1.300
                                                       1.300   1.300   1.300
                                                       1.300

     PseudoPot. # 5 for Tl read from file:
     /opt/QEpot/SSSP_precision_pseudos/Ti_pbe_v1.2.uspp.F.UPF
     MD5 check sum: b76cf1f7e72655a2b2c53cf6385d7059
     Pseudo is Ultrasoft + core correction, Zval = 13.0
     Generated by new atomic code, or converted to UPF format
     Using radial grid of  899 points,  6 beta functions with: 
                l(1) =   0
                l(2) =   0
                l(3) =   1
                l(4) =   1
                l(5) =   2
                l(6) =   2
     Q(r) pseudized with  6 coefficients,  rinner =    1.100   1.100   1.100
                                                       1.100   1.100

     PseudoPot. # 6 for Zr read from file:
     /opt/QEpot/SSSP_precision_pseudos/Zr_pbe_v1.uspp.F.UPF
     MD5 check sum: 5db81b1e868ab7776c4564c113de050b
     Pseudo is Ultrasoft + core correction, Zval = 12.0
     Generated by new atomic code, or converted to UPF format
     Using radial grid of  887 points,  6 beta functions with: 
                l(1) =   0
                l(2) =   0
                l(3) =   1
                l(4) =   1
                l(5) =   2
                l(6) =   2
     Q(r) pseudized with  6 coefficients,  rinner =    1.200   1.200   1.200
                                                       1.200   1.200

     atomic species   valence    mass     pseudopotential
        Al             3.00    26.98154     Al( 1.00)
        Mo            14.00    95.95000     Mo( 1.00)
        Nb            13.00    92.90638     Nb( 1.00)
        Ta            13.00   180.94788     Ta( 1.00)
        Ti            13.00    47.86700     Tl( 1.00)
        Zr            12.00    91.22400     Zr( 1.00)

      cell mass =   8.20140 AMU 

     No symmetry found



   Cartesian axes

     site n.     atom                  positions (alat units)
         1           Al  tau(   1) = (  -0.0000001  -0.0000001  -0.0000000  )
         2           Al  tau(   2) = (  -0.0000002   0.5000001   0.5000002  )
         3           Al  tau(   3) = (   0.5000003  -0.0000001   0.5000005  )
         4           Al  tau(   4) = (   0.5000001   0.5000001   0.0000001  )

     number of k points=   504  Gaussian smearing, width (Ry)=  0.0100

     Number of k-points >= 100: set verbosity='high' to print them.

     Dense  grid:    69599 G-vectors     FFT dimensions: (  54,  54,  54)

     Smooth grid:    20479 G-vectors     FFT dimensions: (  36,  36,  36)

     Estimated max dynamical RAM per process >      66.30 MB

     Estimated total dynamical RAM >       2.07 GB

     Initial potential from superposition of free atoms

     starting charge   11.99084, renormalised to   12.00000
     Starting wfcs are   16 randomized atomic wfcs
     Checking if some PAW data can be deallocated... 

     total cpu time spent up to now is       10.5 secs

     Self-consistent Calculation

     iteration #  1     ecut=    48.95 Ry     beta= 0.40
     Davidson diagonalization with overlap
     ethr =  1.00E-02,  avg # of iterations =  3.3

     Threshold (ethr) on eigenvalues was too large:
     Diagonalizing with lowered threshold

     Davidson diagonalization with overlap
     ethr =  1.82E-04,  avg # of iterations =  3.2

     total cpu time spent up to now is       22.8 secs

     total energy              =    -158.01225769 Ry
     Harris-Foulkes estimate   =    -158.01608232 Ry
     estimated scf accuracy    <       0.02170523 Ry

     iteration #  2     ecut=    48.95 Ry     beta= 0.40
     Davidson diagonalization with overlap
     ethr =  1.81E-04,  avg # of iterations =  1.0

     total cpu time spent up to now is       27.4 secs

     total energy              =    -158.01032135 Ry
     Harris-Foulkes estimate   =    -158.01236564 Ry
     estimated scf accuracy    <       0.00744310 Ry

     iteration #  3     ecut=    48.95 Ry     beta= 0.40
     Davidson diagonalization with overlap
     ethr =  6.20E-05,  avg # of iterations =  1.2

     total cpu time spent up to now is       32.0 secs

     total energy              =    -158.01048466 Ry
     Harris-Foulkes estimate   =    -158.01048904 Ry
     estimated scf accuracy    <       0.00001206 Ry

     iteration #  4     ecut=    48.95 Ry     beta= 0.40
     Davidson diagonalization with overlap
     ethr =  1.01E-07,  avg # of iterations =  3.9

     total cpu time spent up to now is       39.1 secs

     total energy              =    -158.01049797 Ry
     Harris-Foulkes estimate   =    -158.01049875 Ry
     estimated scf accuracy    <       0.00000297 Ry

     iteration #  5     ecut=    48.95 Ry     beta= 0.40
     Davidson diagonalization with overlap
     ethr =  2.48E-08,  avg # of iterations =  1.1

     total cpu time spent up to now is       43.6 secs

     End of self-consistent calculation

     Number of k-points >= 100: set verbosity='high' to print the bands.

     the Fermi energy is     7.9356 ev

!    total energy              =    -158.01049803 Ry
     Harris-Foulkes estimate   =    -158.01049803 Ry
     estimated scf accuracy    <       0.00000001 Ry

     convergence has been achieved in   5 iterations

     Forces acting on atoms (cartesian axes, Ry/au):

     atom    1 type  1   force =    -0.00000535   -0.00000810   -0.00000435
     atom    2 type  1   force =    -0.00000319    0.00000765    0.00000746
     atom    3 type  1   force =     0.00000272   -0.00000721   -0.00000051
     atom    4 type  1   force =     0.00000582    0.00000766   -0.00000260

     Total force =     0.000020     Total SCF correction =     0.000027
     SCF correction compared to forces is large: reduce conv_thr to get better values


     Computing stress (Cartesian axis) and pressure

          total   stress  (Ry/bohr**3)                   (kbar)     P=        0.09
   0.00000058  -0.00000001  -0.00000003            0.09       -0.00       -0.00
  -0.00000001   0.00000058  -0.00000003           -0.00        0.08       -0.00
  -0.00000003  -0.00000003   0.00000060           -0.00       -0.00        0.09


     Entering Dynamics;  it =     1   time =  0.00000 pico-seconds

 natom=0 for type           2 in sub ranv (1) !!!! 
 natom=0 for type           3 in sub ranv (1) !!!! 
 natom=0 for type           4 in sub ranv (1) !!!! 
 natom=0 for type           5 in sub ranv (1) !!!! 
 natom=0 for type           6 in sub ranv (1) !!!! 
  new lattice vectors (alat unit) :
   0.999814949   0.000000007   0.000000075
   0.000000007   0.999814831   0.000000058
   0.000000075   0.000000058   0.999815548
  new unit-cell volume =    445.2211 (a.u.)^3
  new positions in cryst coord
Al      -0.000000097  -0.000000091  -0.000000053
Al      -0.000000282   0.500000136   0.499999928
Al       0.500000267  -0.000000185   0.500000151
Al       0.500000112   0.500000140  -0.000000027
  new positions in cart coord (alat unit)
Al      -0.000000097  -0.000000091  -0.000000053
Al      -0.000000241   0.499907581   0.499907731
Al       0.499907779  -0.000000153   0.499907963
Al       0.499907590   0.499907559   0.000000040

     Ekin =     0.00000000 Ry    T =    0.0 K  Etot =  -157.70767477
     new unit-cell volume =    445.22106 a.u.^3 (    65.97495 Ang^3 )
     density =      2.71642 g/cm^3

CELL_PARAMETERS (angstrom)
   4.040728109   0.000000029   0.000000303
   0.000000029   4.040727633   0.000000233
   0.000000303   0.000000233   4.040730532

ATOMIC_POSITIONS (angstrom)
Al           -0.0000003923       -0.0000003694       -0.0000002122
Al           -0.0000009748        2.0203644836        2.0203650921
Al            2.0203652857       -0.0000006181        2.0203660281
Al            2.0203645231        2.0203643982        0.0000001599



     Writing output data file ./pwscf.save/
     NEW-OLD atomic charge density approx. for the potential
     extrapolated charge   11.99334, renormalised to   12.00000

     total cpu time spent up to now is       53.7 secs

     Self-consistent Calculation

     iteration #  1     ecut=    48.95 Ry     beta= 0.40
     Davidson diagonalization with overlap
     ethr =  1.00E-06,  avg # of iterations =  2.1

     Threshold (ethr) on eigenvalues was too large:
     Diagonalizing with lowered threshold

     Davidson diagonalization with overlap
     ethr =  1.60E-10,  avg # of iterations =  3.2

     total cpu time spent up to now is       65.1 secs

     End of self-consistent calculation

     Number of k-points >= 100: set verbosity='high' to print the bands.

     the Fermi energy is     7.9428 ev

!    total energy              =    -158.01049752 Ry
     Harris-Foulkes estimate   =    -158.00505248 Ry
     estimated scf accuracy    <       0.00000002 Ry

     convergence has been achieved in   1 iterations

     Forces acting on atoms (cartesian axes, Ry/au):

     atom    1 type  1   force =     0.00000304    0.00000520    0.00000202
     atom    2 type  1   force =     0.00000277   -0.00000507   -0.00000243
     atom    3 type  1   force =    -0.00000269    0.00000500   -0.00000157
     atom    4 type  1   force =    -0.00000311   -0.00000513    0.00000198

     Total force =     0.000012     Total SCF correction =     0.000048
     SCF correction compared to forces is large: reduce conv_thr to get better values


     Computing stress (Cartesian axis) and pressure

          total   stress  (Ry/bohr**3)                   (kbar)     P=        0.55
   0.00000376   0.00000000   0.00000000            0.55        0.00        0.00
   0.00000000   0.00000376   0.00000000            0.00        0.55        0.00
   0.00000000   0.00000000   0.00000377            0.00        0.00        0.55


     Entering Dynamics;  it =     2   time =  0.00097 pico-seconds

  new lattice vectors (alat unit) :
   0.999353725   0.000000006   0.000000068
   0.000000006   0.999353606   0.000000051
   0.000000068   0.000000051   0.999354332
  new unit-cell volume =    444.6052 (a.u.)^3
  new positions in cryst coord
Al      -0.000000098  -0.000000092  -0.000000054
Al      -0.000000281   0.500000136   0.499999934
Al       0.500000265  -0.000000185   0.500000147
Al       0.500000114   0.500000140  -0.000000026
  new positions in cart coord (alat unit)
Al      -0.000000098  -0.000000092  -0.000000054
Al      -0.000000244   0.499676965   0.499677125
Al       0.499677161  -0.000000156   0.499677347
Al       0.499676979   0.499676946   0.000000033

     Ekin =     0.00017097 Ry    T =    3.6 K  Etot =  -157.70767137
     new unit-cell volume =    444.60520 a.u.^3 (    65.88369 Ang^3 )
     density =      2.72018 g/cm^3

CELL_PARAMETERS (angstrom)
   4.038864085   0.000000022   0.000000273
   0.000000022   4.038863604   0.000000208
   0.000000273   0.000000208   4.038866536

ATOMIC_POSITIONS (angstrom)
Al           -0.0000003967       -0.0000003711       -0.0000002197
Al           -0.0000009871        2.0194324569        2.0194331038
Al            2.0194332503       -0.0000006320        2.0194339987
Al            2.0194325141        2.0194323805        0.0000001342



     Writing output data file ./pwscf.save/
     NEW-OLD atomic charge density approx. for the potential
     extrapolated charge   11.98339, renormalised to   12.00000

     total cpu time spent up to now is       75.1 secs

     Self-consistent Calculation

     iteration #  1     ecut=    48.95 Ry     beta= 0.40
     Davidson diagonalization with overlap
     ethr =  1.00E-06,  avg # of iterations =  2.1

     Threshold (ethr) on eigenvalues was too large:
     Diagonalizing with lowered threshold

     Davidson diagonalization with overlap
     ethr =  5.93E-10,  avg # of iterations =  3.5

     total cpu time spent up to now is       87.2 secs

     End of self-consistent calculation

     Number of k-points >= 100: set verbosity='high' to print the bands.

     the Fermi energy is     7.9594 ev

!    total energy              =    -158.01049308 Ry
     Harris-Foulkes estimate   =    -157.99690770 Ry
     estimated scf accuracy    <       0.00000007 Ry

     convergence has been achieved in   1 iterations

     Forces acting on atoms (cartesian axes, Ry/au):

     atom    1 type  1   force =    -0.00000325   -0.00000626   -0.00000250
     atom    2 type  1   force =    -0.00000293    0.00000617    0.00000281
     atom    3 type  1   force =     0.00000289   -0.00000607    0.00000214
     atom    4 type  1   force =     0.00000329    0.00000616   -0.00000246

     Total force =     0.000015     Total SCF correction =     0.000061
     SCF correction compared to forces is large: reduce conv_thr to get better values


     Computing stress (Cartesian axis) and pressure

          total   stress  (Ry/bohr**3)                   (kbar)     P=        1.66
   0.00001126  -0.00000000  -0.00000000            1.66       -0.00       -0.00
  -0.00000000   0.00001126  -0.00000000           -0.00        1.66       -0.00
  -0.00000000  -0.00000000   0.00001126           -0.00       -0.00        1.66


     Entering Dynamics;  it =     3   time =  0.00194 pico-seconds

  new lattice vectors (alat unit) :
   0.998619642   0.000000004   0.000000060
   0.000000004   0.998619522   0.000000045
   0.000000060   0.000000045   0.998620258
  new unit-cell volume =    443.6262 (a.u.)^3
  new positions in cryst coord
Al      -0.000000106  -0.000000106  -0.000000062
Al      -0.000000286   0.500000150   0.499999945
Al       0.500000270  -0.000000197   0.500000148
Al       0.500000123   0.500000154  -0.000000031
  new positions in cart coord (alat unit)
Al      -0.000000106  -0.000000106  -0.000000062
Al      -0.000000254   0.499309933   0.499310096
Al       0.499310120  -0.000000173   0.499310306
Al       0.499309946   0.499309916   0.000000021

     Ekin =     0.00058509 Ry    T =    8.0 K  Etot =  -157.70767146
     new unit-cell volume =    443.62616 a.u.^3 (    65.73861 Ang^3 )
     density =      2.72618 g/cm^3

CELL_PARAMETERS (angstrom)
   4.035897307   0.000000016   0.000000241
   0.000000016   4.035896822   0.000000181
   0.000000241   0.000000181   4.035899793

ATOMIC_POSITIONS (angstrom)
Al           -0.0000004289       -0.0000004265       -0.0000002487
Al           -0.0000010255        2.0179491050        2.0179497650
Al            2.0179498615       -0.0000006989        2.0179506125
Al            2.0179491563        2.0179490382        0.0000000856



     Writing output data file ./pwscf.save/
     NEW-OLD atomic charge density approx. for the potential
     extrapolated charge   11.97354, renormalised to   12.00000

     total cpu time spent up to now is       97.1 secs

     Self-consistent Calculation

     iteration #  1     ecut=    48.95 Ry     beta= 0.40
     Davidson diagonalization with overlap
     ethr =  1.00E-06,  avg # of iterations =  2.0

     Threshold (ethr) on eigenvalues was too large:
     Diagonalizing with lowered threshold

     Davidson diagonalization with overlap
     ethr =  1.37E-09,  avg # of iterations =  3.5

     total cpu time spent up to now is      109.3 secs

     End of self-consistent calculation

     Number of k-points >= 100: set verbosity='high' to print the bands.

     the Fermi energy is     7.9844 ev

!    total energy              =    -158.01047676 Ry
     Harris-Foulkes estimate   =    -157.98882028 Ry
     estimated scf accuracy    <       0.00000016 Ry

     convergence has been achieved in   1 iterations

     Forces acting on atoms (cartesian axes, Ry/au):

     atom    1 type  1   force =     0.00000466    0.00000837    0.00000332
     atom    2 type  1   force =     0.00000465   -0.00000834   -0.00000338
     atom    3 type  1   force =    -0.00000464    0.00000834   -0.00000324
     atom    4 type  1   force =    -0.00000466   -0.00000836    0.00000331

     Total force =     0.000020     Total SCF correction =     0.000078
     SCF correction compared to forces is large: reduce conv_thr to get better values


     Computing stress (Cartesian axis) and pressure

          total   stress  (Ry/bohr**3)                   (kbar)     P=        3.41
   0.00002315  -0.00000000  -0.00000000            3.41       -0.00       -0.00
  -0.00000000   0.00002315  -0.00000000           -0.00        3.41       -0.00
  -0.00000000  -0.00000000   0.00002316           -0.00       -0.00        3.41


     Entering Dynamics;  it =     4   time =  0.00290 pico-seconds

  new lattice vectors (alat unit) :
   0.997617949   0.000000002   0.000000052
   0.000000002   0.997617827   0.000000038
   0.000000052   0.000000038   0.997618574
  new unit-cell volume =    442.2925 (a.u.)^3
  new positions in cryst coord
Al      -0.000000104  -0.000000102  -0.000000062
Al      -0.000000281   0.500000145   0.499999949
Al       0.500000264  -0.000000192   0.500000141
Al       0.500000121   0.500000149  -0.000000029
  new positions in cart coord (alat unit)
Al      -0.000000104  -0.000000101  -0.000000062
Al      -0.000000253   0.498809077   0.498809255
Al       0.498809263  -0.000000172   0.498809454
Al       0.498809097   0.498809063   0.000000016

     Ekin =     0.00123403 Ry    T =   14.0 K  Etot =  -157.70767174
     new unit-cell volume =    442.29252 a.u.^3 (    65.54099 Ang^3 )
     density =      2.73440 g/cm^3

CELL_PARAMETERS (angstrom)
   4.031848986   0.000000009   0.000000208
   0.000000009   4.031848495   0.000000153
   0.000000208   0.000000153   4.031851513

ATOMIC_POSITIONS (angstrom)
Al           -0.0000004209       -0.0000004098       -0.0000002490
Al           -0.0000010238        2.0159249092        2.0159256287
Al            2.0159256611       -0.0000006941        2.0159264299
Al            2.0159249868        2.0159248518        0.0000000654



     Writing output data file ./pwscf.save/
     NEW-OLD atomic charge density approx. for the potential
     extrapolated charge   11.96384, renormalised to   12.00000

     total cpu time spent up to now is      119.2 secs

     Self-consistent Calculation

     iteration #  1     ecut=    48.95 Ry     beta= 0.40
     Davidson diagonalization with overlap
     ethr =  1.00E-06,  avg # of iterations =  2.0

     Threshold (ethr) on eigenvalues was too large:
     Diagonalizing with lowered threshold

     Davidson diagonalization with overlap
     ethr =  2.50E-09,  avg # of iterations =  3.5

     total cpu time spent up to now is      131.4 secs

     End of self-consistent calculation

     Number of k-points >= 100: set verbosity='high' to print the bands.

     the Fermi energy is     8.0177 ev

!    total energy              =    -158.01043600 Ry
     Harris-Foulkes estimate   =    -157.98082253 Ry
     estimated scf accuracy    <       0.00000029 Ry

     convergence has been achieved in   1 iterations

     Forces acting on atoms (cartesian axes, Ry/au):

     atom    1 type  1   force =    -0.00000523   -0.00001011   -0.00000399
     atom    2 type  1   force =    -0.00000509    0.00001010    0.00000409
     atom    3 type  1   force =     0.00000508   -0.00001005    0.00000389
     atom    4 type  1   force =     0.00000525    0.00001006   -0.00000399

     Total force =     0.000024     Total SCF correction =     0.000099
     SCF correction compared to forces is large: reduce conv_thr to get better values


     Computing stress (Cartesian axis) and pressure

          total   stress  (Ry/bohr**3)                   (kbar)     P=        5.81
   0.00003950  -0.00000000  -0.00000000            5.81       -0.00       -0.00
  -0.00000000   0.00003950  -0.00000000           -0.00        5.81       -0.00
  -0.00000000  -0.00000000   0.00003950           -0.00       -0.00        5.81


     Entering Dynamics;  it =     5   time =  0.00387 pico-seconds

  new lattice vectors (alat unit) :
   0.996355830   0.000000000   0.000000043
   0.000000000   0.996355707   0.000000031
   0.000000043   0.000000031   0.996356467
  new unit-cell volume =    440.6160 (a.u.)^3
  new positions in cryst coord
Al      -0.000000114  -0.000000119  -0.000000070
Al      -0.000000287   0.500000162   0.499999962
Al       0.500000269  -0.000000208   0.500000143
Al       0.500000131   0.500000166  -0.000000035
  new positions in cart coord (alat unit)
Al      -0.000000113  -0.000000119  -0.000000070
Al      -0.000000264   0.498178031   0.498178211
Al       0.498178205  -0.000000192   0.498178398
Al       0.498178046   0.498178019   0.000000003

     Ekin =     0.00209925 Ry    T =   21.5 K  Etot =  -157.70767235
     new unit-cell volume =    440.61597 a.u.^3 (    65.29255 Ang^3 )
     density =      2.74481 g/cm^3

CELL_PARAMETERS (angstrom)
   4.026748163   0.000000002   0.000000175
   0.000000002   4.026747666   0.000000126
   0.000000175   0.000000126   4.026750738

ATOMIC_POSITIONS (angstrom)
Al           -0.0000004578       -0.0000004800       -0.0000002836
Al           -0.0000010659        2.0133745486        2.0133752795
Al            2.0133752530       -0.0000007758        2.0133760323
Al            2.0133746113        2.0133745005        0.0000000103



     Writing output data file ./pwscf.save/
     NEW-OLD atomic charge density approx. for the potential
     extrapolated charge   11.95437, renormalised to   12.00000

     total cpu time spent up to now is      141.3 secs

     Self-consistent Calculation

     iteration #  1     ecut=    48.95 Ry     beta= 0.40
     Davidson diagonalization with overlap
     ethr =  1.00E-06,  avg # of iterations =  2.1

     Threshold (ethr) on eigenvalues was too large:
     Diagonalizing with lowered threshold

     Davidson diagonalization with overlap
     ethr =  3.97E-09,  avg # of iterations =  3.5

     total cpu time spent up to now is      153.5 secs

     End of self-consistent calculation

     Number of k-points >= 100: set verbosity='high' to print the bands.

     the Fermi energy is     8.0592 ev

!    total energy              =    -158.01035394 Ry
     Harris-Foulkes estimate   =    -157.97294377 Ry
     estimated scf accuracy    <       0.00000047 Ry

     convergence has been achieved in   1 iterations

     Forces acting on atoms (cartesian axes, Ry/au):

     atom    1 type  1   force =     0.00000724    0.00001329    0.00000526
     atom    2 type  1   force =     0.00000733   -0.00001331   -0.00000523
     atom    3 type  1   force =    -0.00000730    0.00001333   -0.00000528
     atom    4 type  1   force =    -0.00000726   -0.00001332    0.00000525

     Total force =     0.000032     Total SCF correction =     0.000125
     SCF correction compared to forces is large: reduce conv_thr to get better values


     Computing stress (Cartesian axis) and pressure

          total   stress  (Ry/bohr**3)                   (kbar)     P=        8.88
   0.00006038   0.00000000  -0.00000000            8.88        0.00       -0.00
   0.00000000   0.00006038  -0.00000000            0.00        8.88       -0.00
  -0.00000000  -0.00000000   0.00006039           -0.00       -0.00        8.88


     Entering Dynamics;  it =     6   time =  0.00484 pico-seconds

  new lattice vectors (alat unit) :
   0.994842416  -0.000000001   0.000000035
  -0.000000001   0.994842291   0.000000024
   0.000000035   0.000000024   0.994843066
  new unit-cell volume =    438.6112 (a.u.)^3
  new positions in cryst coord
Al      -0.000000108  -0.000000108  -0.000000068
Al      -0.000000277   0.500000151   0.499999964
Al       0.500000259  -0.000000196   0.500000134
Al       0.500000126   0.500000154  -0.000000030
  new positions in cart coord (alat unit)
Al      -0.000000107  -0.000000108  -0.000000068
Al      -0.000000258   0.497421307   0.497421509
Al       0.497421483  -0.000000184   0.497421684
Al       0.497421332   0.497421298   0.000000000

     Ekin =     0.00315580 Ry    T =   30.5 K  Etot =  -157.70767343
     new unit-cell volume =    438.61121 a.u.^3 (    64.99547 Ang^3 )
     density =      2.75735 g/cm^3

CELL_PARAMETERS (angstrom)
   4.020631737  -0.000000005   0.000000142
  -0.000000005   4.020631232   0.000000097
   0.000000142   0.000000097   4.020634365

ATOMIC_POSITIONS (angstrom)
Al           -0.0000004324       -0.0000004358       -0.0000002728
Al           -0.0000010447        2.0103162706        2.0103170866
Al            2.0103169799       -0.0000007427        2.0103177908
Al            2.0103163716        2.0103162322        0.0000000000



     Writing output data file ./pwscf.save/
     NEW-OLD atomic charge density approx. for the potential
     extrapolated charge   11.94519, renormalised to   12.00000

     total cpu time spent up to now is      163.4 secs

     Self-consistent Calculation

     iteration #  1     ecut=    48.95 Ry     beta= 0.40
     Davidson diagonalization with overlap
     ethr =  1.00E-06,  avg # of iterations =  2.2

     Threshold (ethr) on eigenvalues was too large:
     Diagonalizing with lowered threshold

     Davidson diagonalization with overlap
     ethr =  5.76E-09,  avg # of iterations =  3.4

     total cpu time spent up to now is      175.6 secs

     End of self-consistent calculation

     Number of k-points >= 100: set verbosity='high' to print the bands.

     the Fermi energy is     8.1085 ev

!    total energy              =    -158.01020978 Ry
     Harris-Foulkes estimate   =    -157.96521121 Ry
     estimated scf accuracy    <       0.00000069 Ry

     convergence has been achieved in   1 iterations

     Forces acting on atoms (cartesian axes, Ry/au):

     atom    1 type  1   force =    -0.00000849   -0.00001630   -0.00000643
     atom    2 type  1   force =    -0.00000840    0.00001629    0.00000648
     atom    3 type  1   force =     0.00000838   -0.00001623    0.00000637
     atom    4 type  1   force =     0.00000850    0.00001624   -0.00000643

     Total force =     0.000039     Total SCF correction =     0.000157
     SCF correction compared to forces is large: reduce conv_thr to get better values


     Computing stress (Cartesian axis) and pressure

          total   stress  (Ry/bohr**3)                   (kbar)     P=       12.63
   0.00008588  -0.00000000  -0.00000000           12.63       -0.00       -0.00
  -0.00000000   0.00008588  -0.00000000           -0.00       12.63       -0.00
  -0.00000000  -0.00000000   0.00008589           -0.00       -0.00       12.63


     Entering Dynamics;  it =     7   time =  0.00581 pico-seconds

  new lattice vectors (alat unit) :
   0.993088785  -0.000000003   0.000000027
  -0.000000003   0.993088658   0.000000017
   0.000000027   0.000000017   0.993089450
  new unit-cell volume =    436.2959 (a.u.)^3
  new positions in cryst coord
Al      -0.000000120  -0.000000132  -0.000000079
Al      -0.000000285   0.500000174   0.499999980
Al       0.500000266  -0.000000219   0.500000138
Al       0.500000138   0.500000177  -0.000000038
  new positions in cart coord (alat unit)
Al      -0.000000119  -0.000000132  -0.000000079
Al      -0.000000271   0.496544510   0.496544713
Al       0.496544670  -0.000000210   0.496544875
Al       0.496544528   0.496544503  -0.000000016

     Ekin =     0.00437277 Ry    T =   40.8 K  Etot =  -157.70767512
     new unit-cell volume =    436.29585 a.u.^3 (    64.65237 Ang^3 )
     density =      2.77199 g/cm^3

CELL_PARAMETERS (angstrom)
   4.013544479  -0.000000012   0.000000109
  -0.000000012   4.013543965   0.000000068
   0.000000109   0.000000068   4.013547167

ATOMIC_POSITIONS (angstrom)
Al           -0.0000004798       -0.0000005317       -0.0000003173
Al           -0.0000010955        2.0067727155        2.0067735361
Al            2.0067733623       -0.0000008494        2.0067741908
Al            2.0067727886        2.0067726866       -0.0000000658



     Writing output data file ./pwscf.save/
     NEW-OLD atomic charge density approx. for the potential
     extrapolated charge   11.93637, renormalised to   12.00000

     total cpu time spent up to now is      185.5 secs

     Self-consistent Calculation

     iteration #  1     ecut=    48.95 Ry     beta= 0.40
     Davidson diagonalization with overlap
     ethr =  1.00E-06,  avg # of iterations =  2.2

     Threshold (ethr) on eigenvalues was too large:
     Diagonalizing with lowered threshold

     Davidson diagonalization with overlap
     ethr =  7.98E-09,  avg # of iterations =  3.3

     total cpu time spent up to now is      197.6 secs

     End of self-consistent calculation

     Number of k-points >= 100: set verbosity='high' to print the bands.

     the Fermi energy is     8.1655 ev

!    total energy              =    -158.00997930 Ry
     Harris-Foulkes estimate   =    -157.95765072 Ry
     estimated scf accuracy    <       0.00000096 Ry

     convergence has been achieved in   1 iterations

     Forces acting on atoms (cartesian axes, Ry/au):

     atom    1 type  1   force =     0.00001137    0.00002108    0.00000835
     atom    2 type  1   force =     0.00001143   -0.00002110   -0.00000829
     atom    3 type  1   force =    -0.00001145    0.00002115   -0.00000838
     atom    4 type  1   force =    -0.00001135   -0.00002113    0.00000832

     Total force =     0.000051     Total SCF correction =     0.000198
     SCF correction compared to forces is large: reduce conv_thr to get better values


     Computing stress (Cartesian axis) and pressure

          total   stress  (Ry/bohr**3)                   (kbar)     P=       17.08
   0.00011610  -0.00000000   0.00000000           17.08       -0.00        0.00
  -0.00000000   0.00011610  -0.00000000           -0.00       17.08       -0.00
   0.00000000  -0.00000000   0.00011610            0.00       -0.00       17.08


     Entering Dynamics;  it =     8   time =  0.00678 pico-seconds

  new lattice vectors (alat unit) :
   0.991107961  -0.000000005   0.000000019
  -0.000000005   0.991107831   0.000000010
   0.000000019   0.000000010   0.991108642
  new unit-cell volume =    433.6903 (a.u.)^3
  new positions in cryst coord
Al      -0.000000107  -0.000000111  -0.000000072
Al      -0.000000269   0.500000152   0.499999978
Al       0.500000249  -0.000000196   0.500000124
Al       0.500000127   0.500000155  -0.000000029
  new positions in cart coord (alat unit)
Al      -0.000000106  -0.000000110  -0.000000072
Al      -0.000000259   0.495554071   0.495554304
Al       0.495554237  -0.000000192   0.495554453
Al       0.495554103   0.495554067  -0.000000015

     Ekin =     0.00571385 Ry    T =   52.1 K  Etot =  -157.70767750
     new unit-cell volume =    433.69034 a.u.^3 (    64.26628 Ang^3 )
     density =      2.78864 g/cm^3

CELL_PARAMETERS (angstrom)
   4.005539025  -0.000000019   0.000000076
  -0.000000019   4.005538502   0.000000039
   0.000000076   0.000000039   4.005541780

ATOMIC_POSITIONS (angstrom)
Al           -0.0000004294       -0.0000004462       -0.0000002899
Al           -0.0000010476        2.0027698809        2.0027708199
Al            2.0027705488       -0.0000007744        2.0027714246
Al            2.0027700105        2.0027698614       -0.0000000603



     Writing output data file ./pwscf.save/
     NEW-OLD atomic charge density approx. for the potential
     extrapolated charge   11.92796, renormalised to   12.00000

     total cpu time spent up to now is      207.4 secs

     Self-consistent Calculation

     iteration #  1     ecut=    48.95 Ry     beta= 0.40
     Davidson diagonalization with overlap
     ethr =  1.00E-06,  avg # of iterations =  2.5

     Threshold (ethr) on eigenvalues was too large:
     Diagonalizing with lowered threshold

     Davidson diagonalization with overlap
     ethr =  1.07E-08,  avg # of iterations =  3.0

     total cpu time spent up to now is      219.4 secs

     total energy              =    -158.00963616 Ry
     Harris-Foulkes estimate   =    -157.95028775 Ry
     estimated scf accuracy    <       0.00000130 Ry

     iteration #  2     ecut=    48.95 Ry     beta= 0.40
     Davidson diagonalization with overlap
     ethr =  1.09E-08,  avg # of iterations =  1.9

     total cpu time spent up to now is      224.5 secs

     End of self-consistent calculation

     Number of k-points >= 100: set verbosity='high' to print the bands.

     the Fermi energy is     8.2128 ev

!    total energy              =    -158.00963571 Ry
     Harris-Foulkes estimate   =    -158.00963635 Ry
     estimated scf accuracy    <       0.00000031 Ry

     convergence has been achieved in   2 iterations

     Forces acting on atoms (cartesian axes, Ry/au):

     atom    1 type  1   force =    -0.00000574   -0.00001138   -0.00000455
     atom    2 type  1   force =    -0.00000613    0.00001161    0.00000483
     atom    3 type  1   force =     0.00000583   -0.00001114    0.00000433
     atom    4 type  1   force =     0.00000605    0.00001090   -0.00000462

     Total force =     0.000027     Total SCF correction =     0.000045
     SCF correction compared to forces is large: reduce conv_thr to get better values


     Computing stress (Cartesian axis) and pressure

          total   stress  (Ry/bohr**3)                   (kbar)     P=       21.99
   0.00014950  -0.00000000  -0.00000000           21.99       -0.00       -0.00
  -0.00000000   0.00014950   0.00000000           -0.00       21.99        0.00
  -0.00000000   0.00000000   0.00014950           -0.00        0.00       21.99


     Entering Dynamics;  it =     9   time =  0.00774 pico-seconds

  new lattice vectors (alat unit) :
   0.988914256  -0.000000007   0.000000011
  -0.000000007   0.988914124   0.000000002
   0.000000011   0.000000002   0.988914956
  new unit-cell volume =    430.8169 (a.u.)^3
  new positions in cryst coord
Al      -0.000000107  -0.000000115  -0.000000075
Al      -0.000000265   0.500000156   0.499999986
Al       0.500000245  -0.000000197   0.500000120
Al       0.500000128   0.500000156  -0.000000030
  new positions in cart coord (alat unit)
Al      -0.000000106  -0.000000113  -0.000000075
Al      -0.000000261   0.494457217   0.494457465
Al       0.494457375  -0.000000197   0.494457601
Al       0.494457251   0.494457213  -0.000000023

     Ekin =     0.00713957 Ry    T =   64.4 K  Etot =  -157.70767939
     new unit-cell volume =    430.81695 a.u.^3 (    63.84048 Ang^3 )
     density =      2.80724 g/cm^3

CELL_PARAMETERS (angstrom)
   3.996673222  -0.000000027   0.000000043
  -0.000000027   3.996672688   0.000000010
   0.000000043   0.000000010   3.996676049

ATOMIC_POSITIONS (angstrom)
Al           -0.0000004282       -0.0000004583       -0.0000003014
Al           -0.0000010529        1.9983369706        1.9983379738
Al            1.9983376103       -0.0000007951        1.9983385236
Al            1.9983371089        1.9983369535       -0.0000000941



     Writing output data file ./pwscf.save/
     NEW-OLD atomic charge density approx. for the potential
     extrapolated charge   11.92003, renormalised to   12.00000

     total cpu time spent up to now is      234.4 secs

     Self-consistent Calculation

     iteration #  1     ecut=    48.95 Ry     beta= 0.40
     Davidson diagonalization with overlap
     ethr =  1.00E-06,  avg # of iterations =  2.7

     Threshold (ethr) on eigenvalues was too large:
     Diagonalizing with lowered threshold

     Davidson diagonalization with overlap
     ethr =  1.28E-08,  avg # of iterations =  2.9

     total cpu time spent up to now is      246.4 secs

     total energy              =    -158.00915000 Ry
     Harris-Foulkes estimate   =    -157.94312961 Ry
     estimated scf accuracy    <       0.00000155 Ry

     iteration #  2     ecut=    48.95 Ry     beta= 0.40
     Davidson diagonalization with overlap
     ethr =  1.29E-08,  avg # of iterations =  1.7

     total cpu time spent up to now is      251.4 secs

     End of self-consistent calculation

     Number of k-points >= 100: set verbosity='high' to print the bands.

     the Fermi energy is     8.2820 ev

!    total energy              =    -158.00914943 Ry
     Harris-Foulkes estimate   =    -158.00915018 Ry
     estimated scf accuracy    <       0.00000043 Ry

     convergence has been achieved in   2 iterations

     Forces acting on atoms (cartesian axes, Ry/au):

     atom    1 type  1   force =     0.00000249    0.00000427    0.00000171
     atom    2 type  1   force =     0.00000250   -0.00000424   -0.00000164
     atom    3 type  1   force =    -0.00000251    0.00000434   -0.00000178
     atom    4 type  1   force =    -0.00000249   -0.00000437    0.00000170

     Total force =     0.000011     Total SCF correction =     0.000015
     SCF correction compared to forces is large: reduce conv_thr to get better values


     Computing stress (Cartesian axis) and pressure

          total   stress  (Ry/bohr**3)                   (kbar)     P=       27.87
   0.00018948   0.00000000   0.00000000           27.87        0.00        0.00
   0.00000000   0.00018947  -0.00000000            0.00       27.87       -0.00
   0.00000000  -0.00000000   0.00018948            0.00       -0.00       27.87


     Entering Dynamics;  it =    10   time =  0.00871 pico-seconds

  new lattice vectors (alat unit) :
   0.986524591  -0.000000008   0.000000003
  -0.000000008   0.986524455  -0.000000005
   0.000000003  -0.000000005   0.986525310
  new unit-cell volume =    427.7013 (a.u.)^3
  new positions in cryst coord
Al      -0.000000102  -0.000000109  -0.000000075
Al      -0.000000257   0.500000150   0.499999991
Al       0.500000235  -0.000000188   0.500000111
Al       0.500000124   0.500000148  -0.000000027
  new positions in cart coord (alat unit)
Al      -0.000000100  -0.000000107  -0.000000074
Al      -0.000000256   0.493262373   0.493262644
Al       0.493262528  -0.000000193   0.493262766
Al       0.493262413   0.493262369  -0.000000028

     Ekin =     0.00860802 Ry    T =   77.4 K  Etot =  -157.70767795
     new unit-cell volume =    427.70135 a.u.^3 (    63.37880 Ang^3 )
     density =      2.82769 g/cm^3

CELL_PARAMETERS (angstrom)
   3.987015448  -0.000000034   0.000000010
  -0.000000034   3.987014898  -0.000000019
   0.000000010  -0.000000019   3.987018354

ATOMIC_POSITIONS (angstrom)
Al           -0.0000004055       -0.0000004338       -0.0000002983
Al           -0.0000010357        1.9935080360        1.9935091308
Al            1.9935086646       -0.0000007783        1.9935096251
Al            1.9935082003        1.9935080208       -0.0000001132



     Writing output data file ./pwscf.save/
     NEW-OLD atomic charge density approx. for the potential
     extrapolated charge   11.91265, renormalised to   12.00000

     total cpu time spent up to now is      261.2 secs

     Self-consistent Calculation

     iteration #  1     ecut=    48.95 Ry     beta= 0.40
     Davidson diagonalization with overlap
     ethr =  1.00E-06,  avg # of iterations =  2.8

     Threshold (ethr) on eigenvalues was too large:
     Diagonalizing with lowered threshold

     Davidson diagonalization with overlap
     ethr =  1.47E-08,  avg # of iterations =  2.5

     total cpu time spent up to now is      273.1 secs

     total energy              =    -158.00849103 Ry
     Harris-Foulkes estimate   =    -157.93622122 Ry
     estimated scf accuracy    <       0.00000178 Ry

     iteration #  2     ecut=    48.95 Ry     beta= 0.40
     Davidson diagonalization with overlap
     ethr =  1.48E-08,  avg # of iterations =  1.7

     total cpu time spent up to now is      278.0 secs

     End of self-consistent calculation

     Number of k-points >= 100: set verbosity='high' to print the bands.

     the Fermi energy is     8.3579 ev

!    total energy              =    -158.00849035 Ry
     Harris-Foulkes estimate   =    -158.00849124 Ry
     estimated scf accuracy    <       0.00000051 Ry

     convergence has been achieved in   2 iterations

     Forces acting on atoms (cartesian axes, Ry/au):

     atom    1 type  1   force =    -0.00000042   -0.00000113   -0.00000045
     atom    2 type  1   force =    -0.00000039    0.00000107    0.00000049
     atom    3 type  1   force =     0.00000035   -0.00000101    0.00000042
     atom    4 type  1   force =     0.00000045    0.00000107   -0.00000046

     Total force =     0.000002     Total SCF correction =     0.000005
     SCF correction compared to forces is large: reduce conv_thr to get better values


     Computing stress (Cartesian axis) and pressure

          total   stress  (Ry/bohr**3)                   (kbar)     P=       34.47
   0.00023435  -0.00000000   0.00000000           34.47       -0.00        0.00
  -0.00000000   0.00023434   0.00000000           -0.00       34.47        0.00
   0.00000000   0.00000000   0.00023435            0.00        0.00       34.47


     Entering Dynamics;  it =    11   time =  0.00968 pico-seconds

  new lattice vectors (alat unit) :
   0.983957758  -0.000000010  -0.000000005
  -0.000000010   0.983957617  -0.000000012
  -0.000000005  -0.000000012   0.983958498
  new unit-cell volume =    424.3715 (a.u.)^3
  new positions in cryst coord
Al      -0.000000097  -0.000000105  -0.000000075
Al      -0.000000249   0.500000146   0.499999997
Al       0.500000225  -0.000000182   0.500000104
Al       0.500000121   0.500000142  -0.000000025
  new positions in cart coord (alat unit)
Al      -0.000000096  -0.000000104  -0.000000074
Al      -0.000000253   0.491978946   0.491979240
Al       0.491979098  -0.000000190   0.491979349
Al       0.491978993   0.491978943  -0.000000034

     Ekin =     0.01006729 Ry    T =   90.8 K  Etot =  -157.70767755
     new unit-cell volume =    424.37153 a.u.^3 (    62.88537 Ang^3 )
     density =      2.84988 g/cm^3

CELL_PARAMETERS (angstrom)
   3.976641654  -0.000000042  -0.000000022
  -0.000000042   3.976641085  -0.000000048
  -0.000000022  -0.000000048   3.976644646

ATOMIC_POSITIONS (angstrom)
Al           -0.0000003863       -0.0000004188       -0.0000002988
Al           -0.0000010217        1.9883210984        1.9883222863
Al            1.9883217122       -0.0000007698        1.9883227240
Al            1.9883212859        1.9883210847       -0.0000001359



     Writing output data file ./pwscf.save/
     NEW-OLD atomic charge density approx. for the potential
     extrapolated charge   11.90591, renormalised to   12.00000

     total cpu time spent up to now is      287.8 secs

     Self-consistent Calculation

     iteration #  1     ecut=    48.95 Ry     beta= 0.40
     Davidson diagonalization with overlap
     ethr =  1.00E-06,  avg # of iterations =  2.9

     Threshold (ethr) on eigenvalues was too large:
     Diagonalizing with lowered threshold

     Davidson diagonalization with overlap
     ethr =  1.71E-08,  avg # of iterations =  2.3

     total cpu time spent up to now is      299.6 secs

     total energy              =    -158.00762896 Ry
     Harris-Foulkes estimate   =    -157.92959294 Ry
     estimated scf accuracy    <       0.00000208 Ry

     iteration #  2     ecut=    48.95 Ry     beta= 0.40
     Davidson diagonalization with overlap
     ethr =  1.73E-08,  avg # of iterations =  1.5

     total cpu time spent up to now is      304.4 secs

     End of self-consistent calculation

     Number of k-points >= 100: set verbosity='high' to print the bands.

     the Fermi energy is     8.4398 ev

!    total energy              =    -158.00762817 Ry
     Harris-Foulkes estimate   =    -158.00762919 Ry
     estimated scf accuracy    <       0.00000060 Ry

     convergence has been achieved in   2 iterations

     Forces acting on atoms (cartesian axes, Ry/au):

     atom    1 type  1   force =     0.00000059    0.00000069    0.00000025
     atom    2 type  1   force =     0.00000055   -0.00000073   -0.00000021
     atom    3 type  1   force =    -0.00000061    0.00000077   -0.00000029
     atom    4 type  1   force =    -0.00000052   -0.00000073    0.00000024

     Total force =     0.000002     Total SCF correction =     0.000002
     SCF correction compared to forces is large: reduce conv_thr to get better values


     Computing stress (Cartesian axis) and pressure

          total   stress  (Ry/bohr**3)                   (kbar)     P=       41.83
   0.00028435   0.00000000   0.00000000           41.83        0.00        0.00
   0.00000000   0.00028435   0.00000000            0.00       41.83        0.00
   0.00000000   0.00000000   0.00028436            0.00        0.00       41.83


     Entering Dynamics;  it =    12   time =  0.01065 pico-seconds

  new lattice vectors (alat unit) :
   0.981234465  -0.000000012  -0.000000013
  -0.000000012   0.981234318  -0.000000019
  -0.000000013  -0.000000019   0.981235228
  new unit-cell volume =    420.8577 (a.u.)^3
  new positions in cryst coord
Al      -0.000000091  -0.000000100  -0.000000075
Al      -0.000000240   0.500000141   0.500000002
Al       0.500000215  -0.000000174   0.500000095
Al       0.500000116   0.500000134  -0.000000023
  new positions in cart coord (alat unit)
Al      -0.000000090  -0.000000098  -0.000000074
Al      -0.000000248   0.490617287   0.490617607
Al       0.490617436  -0.000000187   0.490617701
Al       0.490617340   0.490617284  -0.000000039

     Ekin =     0.01146912 Ry    T =  104.5 K  Etot =  -157.70767710
     new unit-cell volume =    420.85769 a.u.^3 (    62.36467 Ang^3 )
     density =      2.87367 g/cm^3

CELL_PARAMETERS (angstrom)
   3.965635528  -0.000000049  -0.000000054
  -0.000000049   3.965634934  -0.000000076
  -0.000000054  -0.000000076   3.965638613

ATOMIC_POSITIONS (angstrom)
Al           -0.0000003620       -0.0000003979       -0.0000002972
Al           -0.0000010026        1.9828179864        1.9828192778
Al            1.9828185887       -0.0000007543        1.9828196581
Al            1.9828182010        1.9828179740       -0.0000001560



     Writing output data file ./pwscf.save/
     NEW-OLD atomic charge density approx. for the potential
     extrapolated charge   11.89989, renormalised to   12.00000

     total cpu time spent up to now is      314.3 secs

     Self-consistent Calculation

     iteration #  1     ecut=    48.95 Ry     beta= 0.40
     Davidson diagonalization with overlap
     ethr =  1.00E-06,  avg # of iterations =  3.0

     Threshold (ethr) on eigenvalues was too large:
     Diagonalizing with lowered threshold

     Davidson diagonalization with overlap
     ethr =  1.94E-08,  avg # of iterations =  2.3

     total cpu time spent up to now is      325.9 secs

     total energy              =    -158.00653467 Ry
     Harris-Foulkes estimate   =    -157.92327935 Ry
     estimated scf accuracy    <       0.00000236 Ry

     iteration #  2     ecut=    48.95 Ry     beta= 0.40
     Davidson diagonalization with overlap
     ethr =  1.97E-08,  avg # of iterations =  1.4

     total cpu time spent up to now is      330.6 secs

     End of self-consistent calculation

     Number of k-points >= 100: set verbosity='high' to print the bands.

     the Fermi energy is     8.5272 ev

!    total energy              =    -158.00653379 Ry
     Harris-Foulkes estimate   =    -158.00653493 Ry
     estimated scf accuracy    <       0.00000070 Ry

     convergence has been achieved in   2 iterations

     Forces acting on atoms (cartesian axes, Ry/au):

     atom    1 type  1   force =     0.00000024    0.00000002    0.00000005
     atom    2 type  1   force =     0.00000023    0.00000000    0.00000007
     atom    3 type  1   force =    -0.00000028    0.00000012   -0.00000008
     atom    4 type  1   force =    -0.00000018   -0.00000015   -0.00000004

     Total force =     0.000001     Total SCF correction =     0.000001
     SCF correction compared to forces is large: reduce conv_thr to get better values


     Computing stress (Cartesian axis) and pressure

          total   stress  (Ry/bohr**3)                   (kbar)     P=       49.94
   0.00033951  -0.00000000  -0.00000000           49.94       -0.00       -0.00
  -0.00000000   0.00033951   0.00000000           -0.00       49.94        0.00
  -0.00000000   0.00000000   0.00033952           -0.00        0.00       49.94


     Entering Dynamics;  it =    13   time =  0.01162 pico-seconds

  new lattice vectors (alat unit) :
   0.978377279  -0.000000014  -0.000000021
  -0.000000014   0.978377125  -0.000000026
  -0.000000021  -0.000000026   0.978378067
  new unit-cell volume =    417.1920 (a.u.)^3
  new positions in cryst coord
Al      -0.000000085  -0.000000095  -0.000000075
Al      -0.000000230   0.500000135   0.500000008
Al       0.500000203  -0.000000166   0.500000087
Al       0.500000112   0.500000126  -0.000000021
  new positions in cart coord (alat unit)
Al      -0.000000083  -0.000000093  -0.000000073
Al      -0.000000243   0.489188682   0.489189028
Al       0.489188828  -0.000000183   0.489189108
Al       0.489188742   0.489188679  -0.000000044

     Ekin =     0.01276376 Ry    T =  118.2 K  Etot =  -157.70767673
     new unit-cell volume =    417.19200 a.u.^3 (    61.82148 Ang^3 )
     density =      2.89892 g/cm^3

CELL_PARAMETERS (angstrom)
   3.954088282  -0.000000057  -0.000000086
  -0.000000057   3.954087657  -0.000000105
  -0.000000086  -0.000000105   3.954091465

ATOMIC_POSITIONS (angstrom)
Al           -0.0000003356       -0.0000003767       -0.0000002951
Al           -0.0000009819        1.9770443114        1.9770457120
Al            1.9770449022       -0.0000007380        1.9770460335
Al            1.9770445537        1.9770442986       -0.0000001765



     Writing output data file ./pwscf.save/
     NEW-OLD atomic charge density approx. for the potential
     extrapolated charge   11.89464, renormalised to   12.00000

     total cpu time spent up to now is      340.6 secs

     Self-consistent Calculation

     iteration #  1     ecut=    48.95 Ry     beta= 0.40
     Davidson diagonalization with overlap
     ethr =  1.00E-06,  avg # of iterations =  3.1

     Threshold (ethr) on eigenvalues was too large:
     Diagonalizing with lowered threshold

     Davidson diagonalization with overlap
     ethr =  2.16E-08,  avg # of iterations =  2.1

     total cpu time spent up to now is      352.1 secs

     total energy              =    -158.00518170 Ry
     Harris-Foulkes estimate   =    -157.91731989 Ry
     estimated scf accuracy    <       0.00000263 Ry

     iteration #  2     ecut=    48.95 Ry     beta= 0.40
     Davidson diagonalization with overlap
     ethr =  2.19E-08,  avg # of iterations =  1.3

     total cpu time spent up to now is      356.8 secs

     End of self-consistent calculation

     Number of k-points >= 100: set verbosity='high' to print the bands.

     the Fermi energy is     8.6195 ev

!    total energy              =    -158.00518072 Ry
     Harris-Foulkes estimate   =    -158.00518197 Ry
     estimated scf accuracy    <       0.00000079 Ry

     convergence has been achieved in   2 iterations

     Forces acting on atoms (cartesian axes, Ry/au):

     atom    1 type  1   force =     0.00000036    0.00000034    0.00000024
     atom    2 type  1   force =     0.00000041   -0.00000033   -0.00000012
     atom    3 type  1   force =    -0.00000046    0.00000038   -0.00000025
     atom    4 type  1   force =    -0.00000031   -0.00000040    0.00000014

     Total force =     0.000001     Total SCF correction =     0.000000
     SCF correction compared to forces is large: reduce conv_thr to get better values


     Computing stress (Cartesian axis) and pressure

          total   stress  (Ry/bohr**3)                   (kbar)     P=       58.81
   0.00039981   0.00000000   0.00000000           58.81        0.00        0.00
   0.00000000   0.00039981  -0.00000000            0.00       58.81       -0.00
   0.00000000  -0.00000000   0.00039981            0.00       -0.00       58.81


     Entering Dynamics;  it =    14   time =  0.01258 pico-seconds

  new lattice vectors (alat unit) :
   0.975410568  -0.000000016  -0.000000029
  -0.000000016   0.975410405  -0.000000033
  -0.000000029  -0.000000033   0.975411381
  new unit-cell volume =    413.4084 (a.u.)^3
  new positions in cryst coord
Al      -0.000000078  -0.000000089  -0.000000074
Al      -0.000000220   0.500000129   0.500000014
Al       0.500000191  -0.000000157   0.500000078
Al       0.500000106   0.500000117  -0.000000018
  new positions in cart coord (alat unit)
Al      -0.000000076  -0.000000087  -0.000000072
Al      -0.000000237   0.487705312   0.487705687
Al       0.487705456  -0.000000178   0.487705752
Al       0.487705379   0.487705309  -0.000000048

     Ekin =     0.01390284 Ry    T =  131.6 K  Etot =  -157.70767647
     new unit-cell volume =    413.40838 a.u.^3 (    61.26080 Ang^3 )
     density =      2.92545 g/cm^3

CELL_PARAMETERS (angstrom)
   3.942098388  -0.000000065  -0.000000117
  -0.000000065   3.942097729  -0.000000134
  -0.000000117  -0.000000134   3.942101674

ATOMIC_POSITIONS (angstrom)
Al           -0.0000003061       -0.0000003525       -0.0000002908
Al           -0.0000009568        1.9710493073        1.9710508239
Al            1.9710498885       -0.0000007186        1.9710510862
Al            1.9710495804        1.9710492943       -0.0000001958



     Writing output data file ./pwscf.save/
     NEW-OLD atomic charge density approx. for the potential
     extrapolated charge   11.89026, renormalised to   12.00000

     total cpu time spent up to now is      366.8 secs

     Self-consistent Calculation

     iteration #  1     ecut=    48.95 Ry     beta= 0.40
     Davidson diagonalization with overlap
     ethr =  1.00E-06,  avg # of iterations =  3.1

     Threshold (ethr) on eigenvalues was too large:
     Diagonalizing with lowered threshold

     Davidson diagonalization with overlap
     ethr =  2.36E-08,  avg # of iterations =  2.0

     total cpu time spent up to now is      378.3 secs

     total energy              =    -158.00354776 Ry
     Harris-Foulkes estimate   =    -157.91175992 Ry
     estimated scf accuracy    <       0.00000287 Ry

     iteration #  2     ecut=    48.95 Ry     beta= 0.40
     Davidson diagonalization with overlap
     ethr =  2.39E-08,  avg # of iterations =  1.3

     total cpu time spent up to now is      383.0 secs

     End of self-consistent calculation

     Number of k-points >= 100: set verbosity='high' to print the bands.

     the Fermi energy is     8.7159 ev

!    total energy              =    -158.00354670 Ry
     Harris-Foulkes estimate   =    -158.00354805 Ry
     estimated scf accuracy    <       0.00000087 Ry

     convergence has been achieved in   2 iterations

     Forces acting on atoms (cartesian axes, Ry/au):

     atom    1 type  1   force =     0.00000028    0.00000020    0.00000024
     atom    2 type  1   force =     0.00000030   -0.00000018   -0.00000003
     atom    3 type  1   force =    -0.00000036    0.00000031   -0.00000023
     atom    4 type  1   force =    -0.00000022   -0.00000033    0.00000001

     Total force =     0.000001     Total SCF correction =     0.000000


     Computing stress (Cartesian axis) and pressure

          total   stress  (Ry/bohr**3)                   (kbar)     P=       68.42
   0.00046513  -0.00000000   0.00000000           68.42       -0.00        0.00
  -0.00000000   0.00046512  -0.00000000           -0.00       68.42       -0.00
   0.00000000  -0.00000000   0.00046513            0.00       -0.00       68.42


     Entering Dynamics;  it =    15   time =  0.01355 pico-seconds

  new lattice vectors (alat unit) :
   0.972360391  -0.000000018  -0.000000037
  -0.000000018   0.972360218  -0.000000040
  -0.000000037  -0.000000040   0.972361231
  new unit-cell volume =    409.5422 (a.u.)^3
  new positions in cryst coord
Al      -0.000000070  -0.000000083  -0.000000072
Al      -0.000000208   0.500000123   0.500000019
Al       0.500000178  -0.000000147   0.500000068
Al       0.500000100   0.500000108  -0.000000015
  new positions in cart coord (alat unit)
Al      -0.000000068  -0.000000081  -0.000000070
Al      -0.000000230   0.486180208   0.486180614
Al       0.486180350  -0.000000172   0.486180664
Al       0.486180284   0.486180205  -0.000000053

     Ekin =     0.01484099 Ry    T =  144.5 K  Etot =  -157.70767637
     new unit-cell volume =    409.54223 a.u.^3 (    60.68790 Ang^3 )
     density =      2.95307 g/cm^3

CELL_PARAMETERS (angstrom)
   3.929771172  -0.000000073  -0.000000148
  -0.000000073   3.929770474  -0.000000164
  -0.000000148  -0.000000164   3.929774567

ATOMIC_POSITIONS (angstrom)
Al           -0.0000002741       -0.0000003265       -0.0000002845
Al           -0.0000009288        1.9648856375        1.9648872769
Al            1.9648862105       -0.0000006967        1.9648874789
Al            1.9648859436        1.9648856232       -0.0000002151



     Writing output data file ./pwscf.save/
     NEW-OLD atomic charge density approx. for the potential
     extrapolated charge   11.88680, renormalised to   12.00000

     total cpu time spent up to now is      393.0 secs

     Self-consistent Calculation

     iteration #  1     ecut=    48.95 Ry     beta= 0.40
     Davidson diagonalization with overlap
     ethr =  1.00E-06,  avg # of iterations =  3.1

     Threshold (ethr) on eigenvalues was too large:
     Diagonalizing with lowered threshold

     Davidson diagonalization with overlap
     ethr =  2.52E-08,  avg # of iterations =  2.0

     total cpu time spent up to now is      404.6 secs

     total energy              =    -158.00161653 Ry
     Harris-Foulkes estimate   =    -157.90665124 Ry
     estimated scf accuracy    <       0.00000307 Ry

     iteration #  2     ecut=    48.95 Ry     beta= 0.40
     Davidson diagonalization with overlap
     ethr =  2.55E-08,  avg # of iterations =  1.2

     total cpu time spent up to now is      409.2 secs

     End of self-consistent calculation

     Number of k-points >= 100: set verbosity='high' to print the bands.

     the Fermi energy is     8.8158 ev

!    total energy              =    -158.00161541 Ry
     Harris-Foulkes estimate   =    -158.00161682 Ry
     estimated scf accuracy    <       0.00000094 Ry

     convergence has been achieved in   2 iterations

     Forces acting on atoms (cartesian axes, Ry/au):

     atom    1 type  1   force =     0.00000030    0.00000024    0.00000023
     atom    2 type  1   force =     0.00000037   -0.00000023   -0.00000007
     atom    3 type  1   force =    -0.00000042    0.00000032   -0.00000022
     atom    4 type  1   force =    -0.00000025   -0.00000033    0.00000006

     Total force =     0.000001     Total SCF correction =     0.000000
     SCF correction compared to forces is large: reduce conv_thr to get better values


     Computing stress (Cartesian axis) and pressure

          total   stress  (Ry/bohr**3)                   (kbar)     P=       78.74
   0.00053525   0.00000000   0.00000000           78.74        0.00        0.00
   0.00000000   0.00053524   0.00000000            0.00       78.74        0.00
   0.00000000   0.00000000   0.00053525            0.00        0.00       78.74


     Entering Dynamics;  it =    16   time =  0.01452 pico-seconds

  new lattice vectors (alat unit) :
   0.969254364  -0.000000020  -0.000000044
  -0.000000020   0.969254181  -0.000000048
  -0.000000044  -0.000000048   0.969255233
  new unit-cell volume =    405.6301 (a.u.)^3
  new positions in cryst coord
Al      -0.000000061  -0.000000076  -0.000000070
Al      -0.000000196   0.500000116   0.500000024
Al       0.500000163  -0.000000137   0.500000058
Al       0.500000094   0.500000097  -0.000000012
  new positions in cart coord (alat unit)
Al      -0.000000059  -0.000000074  -0.000000068
Al      -0.000000222   0.484627179   0.484627616
Al       0.484627318  -0.000000166   0.484627651
Al       0.484627263   0.484627175  -0.000000058

     Ekin =     0.01553780 Ry    T =  156.7 K  Etot =  -157.70767641
     new unit-cell volume =    405.63014 a.u.^3 (    60.10818 Ang^3 )
     density =      2.98155 g/cm^3

CELL_PARAMETERS (angstrom)
   3.917218239  -0.000000080  -0.000000177
  -0.000000080   3.917217499  -0.000000193
  -0.000000177  -0.000000193   3.917221751

ATOMIC_POSITIONS (angstrom)
Al           -0.0000002395       -0.0000002985       -0.0000002762
Al           -0.0000008968        1.9586091063        1.9586108746
Al            1.9586096710       -0.0000006716        1.9586110154
Al            1.9586094466        1.9586090902       -0.0000002331



     Writing output data file ./pwscf.save/
     NEW-OLD atomic charge density approx. for the potential
     extrapolated charge   11.88435, renormalised to   12.00000

     total cpu time spent up to now is      429.3 secs

     Self-consistent Calculation

     iteration #  1     ecut=    48.95 Ry     beta= 0.40
     Davidson diagonalization with overlap
     ethr =  1.00E-06,  avg # of iterations =  3.0

     Threshold (ethr) on eigenvalues was too large:
     Diagonalizing with lowered threshold

     Davidson diagonalization with overlap
     ethr =  2.64E-08,  avg # of iterations =  2.0

     total cpu time spent up to now is      440.9 secs

     total energy              =    -157.99937937 Ry
     Harris-Foulkes estimate   =    -157.90205241 Ry
     estimated scf accuracy    <       0.00000321 Ry

     iteration #  2     ecut=    48.95 Ry     beta= 0.40
     Davidson diagonalization with overlap
     ethr =  2.68E-08,  avg # of iterations =  1.2

     total cpu time spent up to now is      445.5 secs

     End of self-consistent calculation

     Number of k-points >= 100: set verbosity='high' to print the bands.

     the Fermi energy is     8.9183 ev

!    total energy              =    -157.99937820 Ry
     Harris-Foulkes estimate   =    -157.99937967 Ry
     estimated scf accuracy    <       0.00000100 Ry

     convergence has been achieved in   2 iterations

     Forces acting on atoms (cartesian axes, Ry/au):

     atom    1 type  1   force =     0.00000024    0.00000021    0.00000029
     atom    2 type  1   force =     0.00000033   -0.00000019   -0.00000004
     atom    3 type  1   force =    -0.00000035    0.00000030   -0.00000021
     atom    4 type  1   force =    -0.00000022   -0.00000032   -0.00000004

     Total force =     0.000001     Total SCF correction =     0.000000


     Computing stress (Cartesian axis) and pressure

          total   stress  (Ry/bohr**3)                   (kbar)     P=       89.71
   0.00060984   0.00000000   0.00000000           89.71        0.00        0.00
   0.00000000   0.00060984  -0.00000000            0.00       89.71       -0.00
   0.00000000  -0.00000000   0.00060985            0.00       -0.00       89.71


     Entering Dynamics;  it =    17   time =  0.01549 pico-seconds

  new lattice vectors (alat unit) :
   0.966121483  -0.000000021  -0.000000051
  -0.000000021   0.966121289  -0.000000055
  -0.000000051  -0.000000055   0.966122383
  new unit-cell volume =    401.7095 (a.u.)^3
  new positions in cryst coord
Al      -0.000000052  -0.000000069  -0.000000068
Al      -0.000000183   0.500000108   0.500000030
Al       0.500000148  -0.000000125   0.500000048
Al       0.500000087   0.500000086  -0.000000009
  new positions in cart coord (alat unit)
Al      -0.000000050  -0.000000066  -0.000000066
Al      -0.000000213   0.483060722   0.483061193
Al       0.483060859  -0.000000159   0.483061212
Al       0.483060815   0.483060717  -0.000000062

     Ekin =     0.01595979 Ry    T =  167.9 K  Etot =  -157.70767660
     new unit-cell volume =    401.70955 a.u.^3 (    59.52721 Ang^3 )
     density =      3.01065 g/cm^3

CELL_PARAMETERS (angstrom)
   3.904556777  -0.000000087  -0.000000207
  -0.000000087   3.904555993  -0.000000223
  -0.000000207  -0.000000223   3.904560413

ATOMIC_POSITIONS (angstrom)
Al           -0.0000002028       -0.0000002686       -0.0000002653
Al           -0.0000008618        1.9522783076        1.9522802113
Al            1.9522788643       -0.0000006439        1.9522802895
Al            1.9522786837        1.9522782888       -0.0000002517



     Writing output data file ./pwscf.save/
     NEW-OLD atomic charge density approx. for the potential
     extrapolated charge   11.88297, renormalised to   12.00000

     total cpu time spent up to now is      455.5 secs

     Self-consistent Calculation

     iteration #  1     ecut=    48.95 Ry     beta= 0.40
     Davidson diagonalization with overlap
     ethr =  1.00E-06,  avg # of iterations =  3.1

     Threshold (ethr) on eigenvalues was too large:
     Diagonalizing with lowered threshold

     Davidson diagonalization with overlap
     ethr =  2.71E-08,  avg # of iterations =  1.9

     total cpu time spent up to now is      467.1 secs

     total energy              =    -157.99683713 Ry
     Harris-Foulkes estimate   =    -157.89802903 Ry
     estimated scf accuracy    <       0.00000329 Ry

     iteration #  2     ecut=    48.95 Ry     beta= 0.40
     Davidson diagonalization with overlap
     ethr =  2.74E-08,  avg # of iterations =  1.2

     total cpu time spent up to now is      471.7 secs

     total energy              =    -157.99683599 Ry
     Harris-Foulkes estimate   =    -157.99683743 Ry
     estimated scf accuracy    <       0.00000103 Ry

     iteration #  3     ecut=    48.95 Ry     beta= 0.40
     Davidson diagonalization with overlap
     ethr =  8.61E-09,  avg # of iterations =  1.6

     total cpu time spent up to now is      476.5 secs

     End of self-consistent calculation

     Number of k-points >= 100: set verbosity='high' to print the bands.

     the Fermi energy is     9.0222 ev

!    total energy              =    -157.99683602 Ry
     Harris-Foulkes estimate   =    -157.99683606 Ry
     estimated scf accuracy    <       0.00000002 Ry

     convergence has been achieved in   3 iterations

     Forces acting on atoms (cartesian axes, Ry/au):

     atom    1 type  1   force =     0.00000023    0.00000022    0.00000010
     atom    2 type  1   force =     0.00000033   -0.00000024   -0.00000008
     atom    3 type  1   force =    -0.00000032    0.00000025   -0.00000009
     atom    4 type  1   force =    -0.00000024   -0.00000022    0.00000008

     Total force =     0.000001     Total SCF correction =     0.000000
     SCF correction compared to forces is large: reduce conv_thr to get better values


     Computing stress (Cartesian axis) and pressure

          total   stress  (Ry/bohr**3)                   (kbar)     P=      101.25
   0.00068825   0.00000000   0.00000000          101.25        0.00        0.00
   0.00000000   0.00068825   0.00000000            0.00      101.24        0.00
   0.00000000   0.00000000   0.00068826            0.00        0.00      101.25


     Entering Dynamics;  it =    18   time =  0.01646 pico-seconds

  new lattice vectors (alat unit) :
   0.962991832  -0.000000023  -0.000000058
  -0.000000023   0.962991626  -0.000000062
  -0.000000058  -0.000000062   0.962992764
  new unit-cell volume =    397.8183 (a.u.)^3
  new positions in cryst coord
Al      -0.000000042  -0.000000061  -0.000000065
Al      -0.000000169   0.500000100   0.500000035
Al       0.500000132  -0.000000113   0.500000037
Al       0.500000079   0.500000074  -0.000000006
  new positions in cart coord (alat unit)
Al      -0.000000041  -0.000000059  -0.000000063
Al      -0.000000204   0.481495878   0.481496384
Al       0.481496014  -0.000000152   0.481496388
Al       0.481495980   0.481495873  -0.000000067

     Ekin =     0.01608256 Ry    T =  178.0 K  Etot =  -157.70767681
     new unit-cell volume =    397.81830 a.u.^3 (    58.95059 Ang^3 )
     density =      3.04010 g/cm^3

CELL_PARAMETERS (angstrom)
   3.891908366  -0.000000093  -0.000000236
  -0.000000093   3.891907534  -0.000000252
  -0.000000236  -0.000000252   3.891912133

ATOMIC_POSITIONS (angstrom)
Al           -0.0000001641       -0.0000002369       -0.0000002537
Al           -0.0000008237        1.9459540301        1.9459560760
Al            1.9459545801       -0.0000006138        1.9459560915
Al            1.9459544439        1.9459540087       -0.0000002693



     Writing output data file ./pwscf.save/
     NEW-OLD atomic charge density approx. for the potential
     extrapolated charge   11.88271, renormalised to   12.00000

     total cpu time spent up to now is      486.5 secs

     Self-consistent Calculation

     iteration #  1     ecut=    48.95 Ry     beta= 0.40
     Davidson diagonalization with overlap
     ethr =  1.00E-06,  avg # of iterations =  3.1

     Threshold (ethr) on eigenvalues was too large:
     Diagonalizing with lowered threshold

     Davidson diagonalization with overlap
     ethr =  2.76E-08,  avg # of iterations =  1.8

     total cpu time spent up to now is      498.0 secs

     total energy              =    -157.99400172 Ry
     Harris-Foulkes estimate   =    -157.89465115 Ry
     estimated scf accuracy    <       0.00000335 Ry

     iteration #  2     ecut=    48.95 Ry     beta= 0.40
     Davidson diagonalization with overlap
     ethr =  2.80E-08,  avg # of iterations =  1.1

     total cpu time spent up to now is      502.5 secs

     total energy              =    -157.99400055 Ry
     Harris-Foulkes estimate   =    -157.99400201 Ry
     estimated scf accuracy    <       0.00000106 Ry

     iteration #  3     ecut=    48.95 Ry     beta= 0.40
     Davidson diagonalization with overlap
     ethr =  8.83E-09,  avg # of iterations =  1.5

     total cpu time spent up to now is      507.3 secs

     End of self-consistent calculation

     Number of k-points >= 100: set verbosity='high' to print the bands.

     the Fermi energy is     9.1273 ev

!    total energy              =    -157.99400058 Ry
     Harris-Foulkes estimate   =    -157.99400061 Ry
     estimated scf accuracy    <       0.00000002 Ry

     convergence has been achieved in   3 iterations

     Forces acting on atoms (cartesian axes, Ry/au):

     atom    1 type  1   force =     0.00000023    0.00000019    0.00000011
     atom    2 type  1   force =     0.00000033   -0.00000023   -0.00000010
     atom    3 type  1   force =    -0.00000028    0.00000025   -0.00000009
     atom    4 type  1   force =    -0.00000027   -0.00000021    0.00000008

     Total force =     0.000001     Total SCF correction =     0.000000


     Computing stress (Cartesian axis) and pressure

          total   stress  (Ry/bohr**3)                   (kbar)     P=      113.30
   0.00077018   0.00000000   0.00000000          113.30        0.00        0.00
   0.00000000   0.00077018   0.00000000            0.00      113.30        0.00
   0.00000000   0.00000000   0.00077018            0.00        0.00      113.30


     Entering Dynamics;  it =    19   time =  0.01742 pico-seconds

  new lattice vectors (alat unit) :
   0.959896439  -0.000000025  -0.000000066
  -0.000000025   0.959896220  -0.000000069
  -0.000000066  -0.000000069   0.959897405
  new unit-cell volume =    393.9944 (a.u.)^3
  new positions in cryst coord
Al      -0.000000032  -0.000000052  -0.000000062
Al      -0.000000155   0.500000091   0.500000040
Al       0.500000116  -0.000000101   0.500000026
Al       0.500000071   0.500000062  -0.000000003
  new positions in cart coord (alat unit)
Al      -0.000000031  -0.000000050  -0.000000060
Al      -0.000000194   0.479948163   0.479948706
Al       0.479948298  -0.000000144   0.479948694
Al       0.479948275   0.479948157  -0.000000071

     Ekin =     0.01589250 Ry    T =  186.7 K  Etot =  -157.70767664
     new unit-cell volume =    393.99444 a.u.^3 (    58.38395 Ang^3 )
     density =      3.06960 g/cm^3

CELL_PARAMETERS (angstrom)
   3.879398409  -0.000000100  -0.000000265
  -0.000000100   3.879397525  -0.000000280
  -0.000000265  -0.000000280   3.879402313

ATOMIC_POSITIONS (angstrom)
Al           -0.0000001235       -0.0000002036       -0.0000002411
Al           -0.0000007824        1.9396989768        1.9397011708
Al            1.9396995210       -0.0000005808        1.9397011233
Al            1.9396994291        1.9396989525       -0.0000002852



     Writing output data file ./pwscf.save/
     NEW-OLD atomic charge density approx. for the potential
     extrapolated charge   11.88362, renormalised to   12.00000

     total cpu time spent up to now is      517.3 secs

     Self-consistent Calculation

     iteration #  1     ecut=    48.95 Ry     beta= 0.40
     Davidson diagonalization with overlap
     ethr =  1.00E-06,  avg # of iterations =  3.1

     Threshold (ethr) on eigenvalues was too large:
     Diagonalizing with lowered threshold

     Davidson diagonalization with overlap
     ethr =  2.69E-08,  avg # of iterations =  1.8

     total cpu time spent up to now is      528.8 secs

     total energy              =    -157.99089736 Ry
     Harris-Foulkes estimate   =    -157.89199784 Ry
     estimated scf accuracy    <       0.00000327 Ry

     iteration #  2     ecut=    48.95 Ry     beta= 0.40
     Davidson diagonalization with overlap
     ethr =  2.72E-08,  avg # of iterations =  1.0

     total cpu time spent up to now is      533.4 secs

     total energy              =    -157.99089620 Ry
     Harris-Foulkes estimate   =    -157.99089763 Ry
     estimated scf accuracy    <       0.00000104 Ry

     iteration #  3     ecut=    48.95 Ry     beta= 0.40
     Davidson diagonalization with overlap
     ethr =  8.69E-09,  avg # of iterations =  1.6

     total cpu time spent up to now is      538.2 secs

     End of self-consistent calculation

     Number of k-points >= 100: set verbosity='high' to print the bands.

     the Fermi energy is     9.2323 ev

!    total energy              =    -157.99089623 Ry
     Harris-Foulkes estimate   =    -157.99089627 Ry
     estimated scf accuracy    <       0.00000002 Ry

     convergence has been achieved in   3 iterations

     Forces acting on atoms (cartesian axes, Ry/au):

     atom    1 type  1   force =     0.00000020    0.00000019    0.00000011
     atom    2 type  1   force =     0.00000029   -0.00000022   -0.00000006
     atom    3 type  1   force =    -0.00000026    0.00000021   -0.00000010
     atom    4 type  1   force =    -0.00000023   -0.00000018    0.00000005

     Total force =     0.000001     Total SCF correction =     0.000000
     SCF correction compared to forces is large: reduce conv_thr to get better values


     Computing stress (Cartesian axis) and pressure

          total   stress  (Ry/bohr**3)                   (kbar)     P=      125.72
   0.00085459   0.00000000   0.00000000          125.72        0.00        0.00
   0.00000000   0.00085459   0.00000000            0.00      125.71        0.00
   0.00000000   0.00000000   0.00085460            0.00        0.00      125.72


     Entering Dynamics;  it =    20   time =  0.01839 pico-seconds

  new lattice vectors (alat unit) :
   0.956866871  -0.000000026  -0.000000072
  -0.000000026   0.956866639  -0.000000076
  -0.000000072  -0.000000076   0.956867872
[...]
Al      -0.000000064   0.468168755   0.468186054
Al       0.468173073  -0.000000088   0.468186085
Al       0.468173059   0.468168774   0.000000007

     Ekin =     0.00074026 Ry    T =  172.3 K  Etot =  -157.70775898
     new unit-cell volume =    365.70727 a.u.^3 (    54.19222 Ang^3 )
     density =      3.30703 g/cm^3

CELL_PARAMETERS (angstrom)
   3.784219056  -0.000000055   0.000000258
  -0.000000055   3.784184450   0.000000284
   0.000000258   0.000000284   3.784324910

ATOMIC_POSITIONS (angstrom)
Al           -0.0000008961       -0.0000006087       -0.0000000946
Al           -0.0000002571        1.8920927813        1.8921626976
Al            1.8921102339       -0.0000003540        1.8921628198
Al            1.8921101784        1.8920928603        0.0000000289



     Writing output data file ./pwscf.save/
     NEW-OLD atomic charge density approx. for the potential
     extrapolated charge   11.98055, renormalised to   12.00000

     total cpu time spent up to now is     2426.6 secs

     Self-consistent Calculation

     iteration #  1     ecut=    48.95 Ry     beta= 0.40
     Davidson diagonalization with overlap
     ethr =  1.00E-06,  avg # of iterations =  2.0

     Threshold (ethr) on eigenvalues was too large:
     Diagonalizing with lowered threshold

     Davidson diagonalization with overlap
     ethr =  6.21E-10,  avg # of iterations =  3.4

     total cpu time spent up to now is     2438.4 secs

     End of self-consistent calculation

     Number of k-points >= 100: set verbosity='high' to print the bands.

     the Fermi energy is    10.0764 ev

!    total energy              =    -157.95655081 Ry
     Harris-Foulkes estimate   =    -157.93956606 Ry
     estimated scf accuracy    <       0.00000007 Ry

     convergence has been achieved in   1 iterations

     Forces acting on atoms (cartesian axes, Ry/au):

     atom    1 type  1   force =     0.00000058    0.00000046    0.00000011
     atom    2 type  1   force =     0.00000042   -0.00000040   -0.00000009
     atom    3 type  1   force =    -0.00000050    0.00000042   -0.00000018
     atom    4 type  1   force =    -0.00000050   -0.00000048    0.00000016

     Total force =     0.000001     Total SCF correction =     0.000000


     Computing stress (Cartesian axis) and pressure

          total   stress  (Ry/bohr**3)                   (kbar)     P=      238.13
   0.00161877   0.00000000  -0.00000000          238.13        0.00       -0.00
   0.00000000   0.00161872  -0.00000000            0.00      238.12       -0.00
  -0.00000000  -0.00000000   0.00161892           -0.00       -0.00      238.15


     Entering Dynamics;  it =    96   time =  0.09196 pico-seconds

  new lattice vectors (alat unit) :
   0.936175929  -0.000000019   0.000000049
  -0.000000019   0.936166985   0.000000059
   0.000000049   0.000000059   0.936203287
  new unit-cell volume =    365.5086 (a.u.)^3
  new positions in cryst coord
Al      -0.000000228  -0.000000155  -0.000000023
Al      -0.000000093   0.500000106   0.500000021
Al       0.500000150  -0.000000122   0.500000067
Al       0.500000170   0.500000172  -0.000000066
  new positions in cart coord (alat unit)
Al      -0.000000214  -0.000000145  -0.000000022
Al      -0.000000072   0.468083621   0.468101693
Al       0.468088130  -0.000000094   0.468101731
Al       0.468088115   0.468083644  -0.000000008

     Ekin =     0.00018779 Ry    T =  170.5 K  Etot =  -157.70776024
     new unit-cell volume =    365.50857 a.u.^3 (    54.16278 Ang^3 )
     density =      3.30883 g/cm^3

CELL_PARAMETERS (angstrom)
   3.783532539  -0.000000075   0.000000196
  -0.000000075   3.783496391   0.000000238
   0.000000196   0.000000238   3.783643106

ATOMIC_POSITIONS (angstrom)
Al           -0.0000008630       -0.0000005874       -0.0000000874
Al           -0.0000002907        1.8917487150        1.8918217519
Al            1.8917669368       -0.0000003811        1.8918219062
Al            1.8917668767        1.8917488067       -0.0000000309



     Writing output data file ./pwscf.save/
     NEW-OLD atomic charge density approx. for the potential
     extrapolated charge   11.99348, renormalised to   12.00000

     total cpu time spent up to now is     2448.5 secs

     Self-consistent Calculation

     iteration #  1     ecut=    48.95 Ry     beta= 0.40
     Davidson diagonalization with overlap
     ethr =  1.00E-06,  avg # of iterations =  2.0

     Threshold (ethr) on eigenvalues was too large:
     Diagonalizing with lowered threshold

     Davidson diagonalization with overlap
     ethr =  7.04E-11,  avg # of iterations =  3.6

     total cpu time spent up to now is     2460.0 secs

     End of self-consistent calculation

     Number of k-points >= 100: set verbosity='high' to print the bands.

     the Fermi energy is    10.0795 ev

!    total energy              =    -157.95622862 Ry
     Harris-Foulkes estimate   =    -157.95053492 Ry
     estimated scf accuracy    <          8.3E-09 Ry

     convergence has been achieved in   1 iterations

     Forces acting on atoms (cartesian axes, Ry/au):

     atom    1 type  1   force =     0.00000055    0.00000042    0.00000010
     atom    2 type  1   force =     0.00000039   -0.00000036   -0.00000010
     atom    3 type  1   force =    -0.00000046    0.00000038   -0.00000015
     atom    4 type  1   force =    -0.00000048   -0.00000044    0.00000015

     Total force =     0.000001     Total SCF correction =     0.000000
     SCF correction compared to forces is large: reduce conv_thr to get better values


     Computing stress (Cartesian axis) and pressure

          total   stress  (Ry/bohr**3)                   (kbar)     P=      239.04
   0.00162492   0.00000000  -0.00000000          239.03        0.00       -0.00
   0.00000000   0.00162487  -0.00000000            0.00      239.03       -0.00
  -0.00000000  -0.00000000   0.00162508           -0.00       -0.00      239.06


     Entering Dynamics;  it =    97   time =  0.09293 pico-seconds

  new lattice vectors (alat unit) :
   0.936344591  -0.000000024   0.000000033
  -0.000000024   0.936335250   0.000000047
   0.000000033   0.000000047   0.936373161
  new unit-cell volume =    365.7065 (a.u.)^3
  new positions in cryst coord
Al      -0.000000218  -0.000000149  -0.000000021
Al      -0.000000090   0.500000102   0.500000016
Al       0.500000147  -0.000000120   0.500000072
Al       0.500000161   0.500000167  -0.000000067
  new positions in cart coord (alat unit)
Al      -0.000000204  -0.000000139  -0.000000020
Al      -0.000000080   0.468167744   0.468186619
Al       0.468172450  -0.000000100   0.468186665
Al       0.468172434   0.468167770  -0.000000023

     Ekin =     0.00000000 Ry    T =  168.7 K  Etot =  -157.70776090
     new unit-cell volume =    365.70648 a.u.^3 (    54.19211 Ang^3 )
     density =      3.30704 g/cm^3

CELL_PARAMETERS (angstrom)
   3.784214183  -0.000000095   0.000000133
  -0.000000095   3.784176431   0.000000190
   0.000000133   0.000000190   3.784329648

ATOMIC_POSITIONS (angstrom)
Al           -0.0000008254       -0.0000005628       -0.0000000794
Al           -0.0000003215        1.8920886951        1.8921649779
Al            1.8921077157       -0.0000004056        1.8921651640
Al            1.8921076519        1.8920887999       -0.0000000910



     Writing output data file ./pwscf.save/
     NEW-OLD atomic charge density approx. for the potential
     extrapolated charge   12.00649, renormalised to   12.00000

     total cpu time spent up to now is     2470.1 secs

     Self-consistent Calculation

     iteration #  1     ecut=    48.95 Ry     beta= 0.40
     Davidson diagonalization with overlap
     ethr =  1.00E-06,  avg # of iterations =  2.0

     Threshold (ethr) on eigenvalues was too large:
     Diagonalizing with lowered threshold

     Davidson diagonalization with overlap
     ethr =  8.09E-11,  avg # of iterations =  3.5

     total cpu time spent up to now is     2481.4 secs

     End of self-consistent calculation

     Number of k-points >= 100: set verbosity='high' to print the bands.

     the Fermi energy is    10.0700 ev

!    total energy              =    -157.95654955 Ry
     Harris-Foulkes estimate   =    -157.96221779 Ry
     estimated scf accuracy    <          9.7E-09 Ry

     convergence has been achieved in   1 iterations

     Forces acting on atoms (cartesian axes, Ry/au):

     atom    1 type  1   force =     0.00000055    0.00000044    0.00000011
     atom    2 type  1   force =     0.00000040   -0.00000038   -0.00000011
     atom    3 type  1   force =    -0.00000047    0.00000040   -0.00000018
     atom    4 type  1   force =    -0.00000048   -0.00000046    0.00000017

     Total force =     0.000001     Total SCF correction =     0.000000
     SCF correction compared to forces is large: reduce conv_thr to get better values


     Computing stress (Cartesian axis) and pressure

          total   stress  (Ry/bohr**3)                   (kbar)     P=      238.07
   0.00161833   0.00000000  -0.00000000          238.06        0.00       -0.00
   0.00000000   0.00161828  -0.00000000            0.00      238.06       -0.00
  -0.00000000  -0.00000000   0.00161849           -0.00       -0.00      238.09


     Entering Dynamics;  it =    98   time =  0.09390 pico-seconds

  new lattice vectors (alat unit) :
   0.936849544  -0.000000028   0.000000017
  -0.000000028   0.936839791   0.000000035
   0.000000017   0.000000035   0.936879374
  new unit-cell volume =    366.2988 (a.u.)^3
  new positions in cryst coord
Al      -0.000000207  -0.000000141  -0.000000019
Al      -0.000000086   0.500000096   0.500000010
Al       0.500000143  -0.000000116   0.500000077
Al       0.500000150   0.500000161  -0.000000068
  new positions in cart coord (alat unit)
Al      -0.000000194  -0.000000132  -0.000000017
Al      -0.000000086   0.468420003   0.468439714
Al       0.468424915  -0.000000106   0.468439767
Al       0.468424898   0.468420032  -0.000000037

     Ekin =     0.00018620 Ry    T =  167.0 K  Etot =  -157.70776110
     new unit-cell volume =    366.29878 a.u.^3 (    54.27988 Ang^3 )
     density =      3.30169 g/cm^3

CELL_PARAMETERS (angstrom)
   3.786254937  -0.000000114   0.000000069
  -0.000000114   3.786215519   0.000000142
   0.000000069   0.000000142   3.786375495

ATOMIC_POSITIONS (angstrom)
Al           -0.0000007833       -0.0000005347       -0.0000000704
Al           -0.0000003492        1.8931081947        1.8931878549
Al            1.8931280456       -0.0000004271        1.8931880725
Al            1.8931279787        1.8931083132       -0.0000001509



     Writing output data file ./pwscf.save/
     NEW-OLD atomic charge density approx. for the potential
     extrapolated charge   12.01939, renormalised to   12.00000

     total cpu time spent up to now is     2491.5 secs

     Self-consistent Calculation

     iteration #  1     ecut=    48.95 Ry     beta= 0.40
     Davidson diagonalization with overlap
     ethr =  1.00E-06,  avg # of iterations =  2.0

     Threshold (ethr) on eigenvalues was too large:
     Diagonalizing with lowered threshold

     Davidson diagonalization with overlap
     ethr =  6.37E-10,  avg # of iterations =  3.4

     total cpu time spent up to now is     2503.2 secs

     End of self-consistent calculation

     Number of k-points >= 100: set verbosity='high' to print the bands.

     the Fermi energy is    10.0481 ev

!    total energy              =    -157.95750255 Ry
     Harris-Foulkes estimate   =    -157.97443371 Ry
     estimated scf accuracy    <       0.00000008 Ry

     convergence has been achieved in   1 iterations

     Forces acting on atoms (cartesian axes, Ry/au):

     atom    1 type  1   force =     0.00000049    0.00000037    0.00000008
     atom    2 type  1   force =     0.00000034   -0.00000032   -0.00000007
     atom    3 type  1   force =    -0.00000041    0.00000034   -0.00000015
     atom    4 type  1   force =    -0.00000042   -0.00000040    0.00000014

     Total force =     0.000001     Total SCF correction =     0.000000
     SCF correction compared to forces is large: reduce conv_thr to get better values


     Computing stress (Cartesian axis) and pressure

          total   stress  (Ry/bohr**3)                   (kbar)     P=      235.25
   0.00159916   0.00000000  -0.00000000          235.24        0.00       -0.00
   0.00000000   0.00159910  -0.00000000            0.00      235.24       -0.00
  -0.00000000  -0.00000000   0.00159933           -0.00       -0.00      235.27


     Entering Dynamics;  it =    99   time =  0.09486 pico-seconds

  new lattice vectors (alat unit) :
   0.937684274  -0.000000033   0.000000001
  -0.000000033   0.937674091   0.000000023
   0.000000001   0.000000023   0.937715415
  new unit-cell volume =    367.2791 (a.u.)^3
  new positions in cryst coord
Al      -0.000000195  -0.000000133  -0.000000016
Al      -0.000000082   0.500000090   0.500000004
Al       0.500000138  -0.000000112   0.500000081
Al       0.500000138   0.500000155  -0.000000068
  new positions in cart coord (alat unit)
Al      -0.000000182  -0.000000125  -0.000000015
Al      -0.000000093   0.468837142   0.468857722
Al       0.468842267  -0.000000110   0.468857784
Al       0.468842250   0.468837174  -0.000000052

     Ekin =     0.00073663 Ry    T =  165.5 K  Etot =  -157.70776102
     new unit-cell volume =    367.27910 a.u.^3 (    54.42515 Ang^3 )
     density =      3.29288 g/cm^3

CELL_PARAMETERS (angstrom)
   3.789628477  -0.000000132   0.000000004
  -0.000000132   3.789587325   0.000000092
   0.000000004   0.000000092   3.789754334

ATOMIC_POSITIONS (angstrom)
Al           -0.0000007374       -0.0000005035       -0.0000000608
Al           -0.0000003738        1.8947940505        1.8948772264
Al            1.8948147647       -0.0000004460        1.8948774751
Al            1.8948146953        1.8947941829       -0.0000002105



     Writing output data file ./pwscf.save/
     NEW-OLD atomic charge density approx. for the potential
     extrapolated charge   12.03201, renormalised to   12.00000

     total cpu time spent up to now is     2513.3 secs

     Self-consistent Calculation

     iteration #  1     ecut=    48.95 Ry     beta= 0.40
     Davidson diagonalization with overlap
     ethr =  1.00E-06,  avg # of iterations =  2.0

     Threshold (ethr) on eigenvalues was too large:
     Diagonalizing with lowered threshold

     Davidson diagonalization with overlap
     ethr =  1.70E-09,  avg # of iterations =  3.4

     total cpu time spent up to now is     2525.0 secs

     End of self-consistent calculation

     Number of k-points >= 100: set verbosity='high' to print the bands.

     the Fermi energy is    10.0141 ev

!    total energy              =    -157.95905534 Ry
     Harris-Foulkes estimate   =    -157.98698360 Ry
     estimated scf accuracy    <       0.00000020 Ry

     convergence has been achieved in   1 iterations

     Forces acting on atoms (cartesian axes, Ry/au):

     atom    1 type  1   force =     0.00000050    0.00000039    0.00000011
     atom    2 type  1   force =     0.00000037   -0.00000035   -0.00000010
     atom    3 type  1   force =    -0.00000043    0.00000038   -0.00000019
     atom    4 type  1   force =    -0.00000043   -0.00000042    0.00000018

     Total force =     0.000001     Total SCF correction =     0.000000
     SCF correction compared to forces is large: reduce conv_thr to get better values


     Computing stress (Cartesian axis) and pressure

          total   stress  (Ry/bohr**3)                   (kbar)     P=      230.65
   0.00156790   0.00000000   0.00000000          230.65        0.00        0.00
   0.00000000   0.00156784  -0.00000000            0.00      230.64       -0.00
   0.00000000  -0.00000000   0.00156808            0.00       -0.00      230.67


     Entering Dynamics;  it =   100   time =  0.09583 pico-seconds

  new lattice vectors (alat unit) :
   0.938838136  -0.000000037  -0.000000015
  -0.000000037   0.938827507   0.000000010
  -0.000000015   0.000000010   0.938870643
  new unit-cell volume =    368.6370 (a.u.)^3
  new positions in cryst coord
Al      -0.000000181  -0.000000124  -0.000000013
Al      -0.000000076   0.500000084   0.499999997
Al       0.500000132  -0.000000107   0.500000084
Al       0.500000125   0.500000147  -0.000000068
  new positions in cart coord (alat unit)
Al      -0.000000170  -0.000000116  -0.000000012
Al      -0.000000098   0.469413837   0.469435324
Al       0.469419185  -0.000000114   0.469435393
Al       0.469419167   0.469413873  -0.000000067

     Ekin =     0.00162319 Ry    T =  164.2 K  Etot =  -157.70776085
     new unit-cell volume =    368.63698 a.u.^3 (    54.62636 Ang^3 )
     density =      3.28075 g/cm^3

CELL_PARAMETERS (angstrom)
   3.794291786  -0.000000150  -0.000000060
  -0.000000150   3.794248829   0.000000041
  -0.000000060   0.000000041   3.794423161

ATOMIC_POSITIONS (angstrom)
Al           -0.0000006873       -0.0000004691       -0.0000000502
Al           -0.0000003950        1.8971247519        1.8972115906
Al            1.8971463649       -0.0000004616        1.8972118702
Al            1.8971462935        1.8971248986       -0.0000002690



     Maximum number of iterations reached, stopping

     Writing output data file ./pwscf.save/

     init_run     :      5.59s CPU      5.99s WALL (       1 calls)
     electrons    :   1433.85s CPU   1513.85s WALL (     100 calls)
     update_pot   :    220.74s CPU    221.58s WALL (      99 calls)
     forces       :    181.21s CPU    184.18s WALL (     100 calls)
     stress       :    527.26s CPU    529.14s WALL (     100 calls)

     Called by init_run:
     wfcinit      :      2.34s CPU      2.47s WALL (       1 calls)
     potinit      :      0.68s CPU      0.72s WALL (       1 calls)
     hinit0       :      2.35s CPU      2.54s WALL (       1 calls)

     Called by electrons:
     c_bands      :   1136.20s CPU   1202.07s WALL (     269 calls)
     sum_band     :    242.98s CPU    253.56s WALL (     269 calls)
     v_of_rho     :      2.58s CPU      2.60s WALL (     269 calls)
     newd         :     33.39s CPU     33.55s WALL (     269 calls)
     PAW_pot      :     66.67s CPU     67.32s WALL (     368 calls)
     mix_rho      :      0.11s CPU      0.12s WALL (     269 calls)

     Called by c_bands:
     init_us_2    :     85.37s CPU     88.78s WALL (  422352 calls)
     cegterg      :   1015.92s CPU   1077.11s WALL (  135576 calls)

     Called by sum_band:
     sum_band:bec :      4.17s CPU      4.41s WALL (  185472 calls)
     addusdens    :     44.77s CPU     44.97s WALL (     269 calls)

     Called by *egterg:
     h_psi        :    807.35s CPU    856.48s WALL (  452227 calls)
     s_psi        :     21.97s CPU     23.57s WALL (  452227 calls)
     g_psi        :      3.00s CPU      3.19s WALL (  316147 calls)
     cdiaghg      :     96.25s CPU    101.55s WALL (  351427 calls)

     Called by h_psi:
     h_psi:calbec :     50.79s CPU     54.19s WALL (  452227 calls)
     vloc_psi     :    728.90s CPU    772.83s WALL (  452227 calls)
     add_vuspsi   :     23.06s CPU     24.74s WALL (  452227 calls)

     General routines
     calbec       :    127.43s CPU    134.58s WALL (  889699 calls)
     fft          :     10.32s CPU     10.60s WALL (    5996 calls)
     ffts         :      0.13s CPU      0.14s WALL (     538 calls)
     fftw         :    804.56s CPU    852.40s WALL ( 8510248 calls)
     interpolate  :      0.27s CPU      0.29s WALL (     269 calls)

     Parallel routines
     fft_scatt_xy :     70.98s CPU     74.71s WALL ( 8516782 calls)
     fft_scatt_yz :    416.61s CPU    442.93s WALL ( 8516782 calls)

     PWSCF        :  40m44.49s CPU  42m18.12s WALL


   This run was terminated on:  21:14:50  19Apr2021            

=------------------------------------------------------------------------------=
   JOB DONE.
=------------------------------------------------------------------------------=
